##File Type: Far field
##File Format: 5
##Source: Yagi_8_element_V0_0_Corner_Panel_masks_optimum
##Date: 2018-08-10 17:40:38
** File exported by POSTFEKO version 2018.0.2-326038 (x64)

#Configuration Name: StandardConfiguration1
#Request Name: Yagi_FarField
#Frequency: 5.80000000E+09
#Coordinate System: Spherical
#No. of Theta Samples: 37
#No. of Phi Samples: 73
#Result Type: Directivity
#No. of Header Lines: 1
#                 "Theta"           "Phi"             "Re(Etheta)"      "Im(Etheta)"      "Re(Ephi)"        "Im(Ephi)"        "Directivity(Theta)""Directivity(Phi)""Directivity(Total)"
                   0.00000000E+00    0.00000000E+00   -7.75323097E-02   -1.23322618E-02   -5.24446728E-07    1.84226595E-07   -2.04563352E+01   -1.23455142E+02   -2.04563352E+01   
                   5.00000000E+00    0.00000000E+00   -1.80588331E-01    7.53158830E-02   -4.42219803E-07    5.52676301E-07   -1.25242548E+01   -1.21356040E+02   -1.25242548E+01   
                   1.00000000E+01    0.00000000E+00   -2.81473756E-01    1.23378461E-01   -3.93197536E-07    9.37817964E-07   -8.60249235E+00   -1.18208845E+02   -8.60249235E+00   
                   1.50000000E+01    0.00000000E+00   -3.02311040E-01    1.48006504E-01   -4.03121822E-07    1.27719158E-06   -7.81228088E+00   -1.15816939E+02   -7.81228088E+00   
                   2.00000000E+01    0.00000000E+00   -2.21519272E-01    2.20316550E-01   -4.60171050E-07    1.51011943E-06   -8.45954842E+00   -1.14388639E+02   -8.45954842E+00   
                   2.50000000E+01    0.00000000E+00   -1.03824643E-01    3.96112384E-01   -5.27099263E-07    1.60416263E-06   -6.10956791E+00   -1.13804266E+02   -6.10956791E+00   
                   3.00000000E+01    0.00000000E+00   -5.71044850E-02    6.50379414E-01   -5.65646248E-07    1.56436240E-06   -2.05781132E+00   -1.13934117E+02   -2.05781132E+00   
                   3.50000000E+01    0.00000000E+00   -1.51862490E-01    8.72928806E-01   -5.56489729E-07    1.42399036E-06    5.94567661E-01   -1.14667114E+02    5.94567661E-01   
                   4.00000000E+01    0.00000000E+00   -3.67051481E-01    9.27430305E-01   -5.04888633E-07    1.22634301E-06    1.62309336E+00   -1.15902261E+02    1.62309336E+00   
                   4.50000000E+01    0.00000000E+00   -5.98507758E-01    7.27309306E-01   -4.33010569E-07    1.00893462E-06    1.12566906E+00   -1.17543017E+02    1.12566906E+00   
                   5.00000000E+01    0.00000000E+00   -7.16287437E-01    2.77399553E-01   -3.66759954E-07    7.96226137E-07   -6.45844985E-01   -1.19498123E+02   -6.45844985E-01   
                   5.50000000E+01    0.00000000E+00   -6.28325335E-01   -3.36969047E-01   -3.25093701E-07    6.00445502E-07   -1.29294886E+00   -1.21668583E+02   -1.29294886E+00   
                   6.00000000E+01    0.00000000E+00   -3.14956553E-01   -9.95641394E-01   -3.15701549E-07    4.26383787E-07    2.02175527E+00   -1.23860169E+02    2.02175527E+00   
                   6.50000000E+01    0.00000000E+00    1.74453273E-01   -1.59227511E+00   -3.36468061E-07    2.76094416E-07    5.73768486E+00   -1.25579808E+02    5.73768486E+00   
                   7.00000000E+01    0.00000000E+00    7.49241432E-01   -2.06319314E+00   -3.79820727E-07    1.51502996E-07    8.47428483E+00   -1.26121696E+02    8.47428483E+00   
                   7.50000000E+01    0.00000000E+00    1.30967415E+00   -2.39128709E+00   -4.37126300E-07    5.49899879E-08    1.03574346E+01   -1.25474170E+02    1.03574346E+01   
                   8.00000000E+01    0.00000000E+00    1.77012738E+00   -2.59253731E+00   -5.01573611E-07   -1.10274281E-08    1.15818912E+01   -1.24345707E+02    1.15818912E+01   
                   8.50000000E+01    0.00000000E+00    2.06963626E+00   -2.69628109E+00   -5.69248700E-07   -4.45559002E-08    1.22725712E+01   -1.23221933E+02    1.22725712E+01   
                   9.00000000E+01    0.00000000E+00    2.17321652E+00   -2.72764768E+00   -6.38773925E-07   -4.41030465E-08    1.24958837E+01   -1.22226902E+02    1.24958837E+01   
                   9.50000000E+01    0.00000000E+00    2.06963652E+00   -2.69628101E+00   -7.09976210E-07   -8.46293156E-09    1.22725714E+01   -1.21329006E+02    1.22725714E+01   
                   1.00000000E+02    0.00000000E+00    1.77012789E+00   -2.59253717E+00   -7.81891287E-07    6.33723389E-08    1.15818917E+01   -1.20463136E+02    1.15818917E+01   
                   1.05000000E+02    0.00000000E+00    1.30967487E+00   -2.39128696E+00   -8.50336207E-07    1.71598152E-07    1.03574353E+01   -1.19589333E+02    1.03574353E+01   
                   1.10000000E+02    0.00000000E+00    7.49242364E-01   -2.06319307E+00   -9.05518900E-07    3.13695066E-07    8.47428582E+00   -1.18724327E+02    8.47428582E+00   
                   1.15000000E+02    0.00000000E+00    1.74454403E-01   -1.59227514E+00   -9.30747337E-07    4.80942060E-07    5.73768566E+00   -1.17950074E+02    5.73768566E+00   
                   1.20000000E+02    0.00000000E+00   -3.14955215E-01   -9.95641503E-01   -9.03983379E-07    6.53926109E-07    2.02175278E+00   -1.17403485E+02    2.02175278E+00   
                   1.25000000E+02    0.00000000E+00   -6.28323769E-01   -3.36969192E-01   -8.04037170E-07    7.99236178E-07   -1.29296485E+00   -1.17264609E+02   -1.29296485E+00   
                   1.30000000E+02    0.00000000E+00   -7.16285631E-01    2.77399431E-01   -6.21609247E-07    8.71290503E-07   -6.45864522E-01   -1.17764377E+02   -6.45864522E-01   
                   1.35000000E+02    0.00000000E+00   -5.98505747E-01    7.27309237E-01   -3.71707879E-07    8.23452394E-07    1.12565678E+00   -1.19236317E+02    1.12565678E+00   
                   1.40000000E+02    0.00000000E+00   -3.67049377E-01    9.27430270E-01   -9.96600627E-08    6.29042774E-07    1.62308633E+00   -1.22273231E+02    1.62308633E+00   
                   1.45000000E+02    0.00000000E+00   -1.51860499E-01    8.72928752E-01    1.28089904E-07    3.05151979E-07    5.94563792E-01   -1.27959376E+02    5.94563792E-01   
                   1.50000000E+02    0.00000000E+00   -5.71028709E-02    6.50379310E-01    2.50809702E-07   -7.56554440E-08   -2.05781459E+00   -1.29989406E+02   -2.05781459E+00   
                   1.55000000E+02    0.00000000E+00   -1.03823641E-01    3.96112271E-01    2.47231042E-07   -4.00566100E-07   -6.10957561E+00   -1.24899264E+02   -6.10957561E+00   
                   1.60000000E+02    0.00000000E+00   -2.21518985E-01    2.20316557E-01    1.54565631E-07   -5.60006501E-07   -8.45955393E+00   -1.23071789E+02   -8.45955393E+00   
                   1.65000000E+02    0.00000000E+00   -3.02311372E-01    1.48006793E-01    5.47156247E-08   -4.99432712E-07   -7.81226989E+00   -1.24333144E+02   -7.81226989E+00   
                   1.70000000E+02    0.00000000E+00   -2.81474432E-01    1.23379128E-01    3.08360890E-08   -2.47501338E-07   -8.60246728E+00   -1.30416052E+02   -8.60246728E+00   
                   1.75000000E+02    0.00000000E+00   -1.80589008E-01    7.53168673E-02    1.21545810E-07    9.92915891E-08   -1.25242103E+01   -1.34439466E+02   -1.25242103E+01   
                   1.80000000E+02    0.00000000E+00   -7.75327279E-02   -1.23311838E-02    3.04396348E-07    4.25120949E-07   -2.04563083E+01   -1.23986753E+02   -2.04563083E+01   
                   0.00000000E+00    5.00000000E+00   -7.72373215E-02   -1.22853177E-02    6.75686358E-03    1.07501096E-03   -2.04894460E+01   -4.16510335E+01   -2.04563352E+01   
                   5.00000000E+00    5.00000000E+00   -1.80349260E-01    7.48409916E-02    5.38018566E-03   -5.54653341E-03   -1.25421694E+01   -4.05939971E+01   -1.25353732E+01   
                   1.00000000E+01    5.00000000E+00   -2.81417172E-01    1.22688580E-01    5.70103678E-03   -1.05745194E-02   -8.61177249E+00   -3.67611653E+01   -8.60512722E+00   
                   1.50000000E+01    5.00000000E+00   -3.03034584E-01    1.47004175E-01    6.69020432E-03   -1.21455555E-02   -7.80682977E+00   -3.55153081E+01   -7.79947501E+00   
                   2.00000000E+01    5.00000000E+00   -2.23127957E-01    2.18135104E-01    6.63655121E-03   -9.96615728E-03   -8.47029161E+00   -3.67899737E+01   -8.46390167E+00   
                   2.50000000E+01    5.00000000E+00   -1.05034292E-01    3.92016624E-01    4.33748149E-03   -5.38896160E-03   -6.18731957E+00   -4.15552574E+01   -6.18605796E+00   
                   3.00000000E+01    5.00000000E+00   -5.56722148E-02    6.45279429E-01   -1.19038754E-04   -5.57321278E-04   -2.12733540E+00   -6.32386433E+01   -2.12733203E+00   
                   3.50000000E+01    5.00000000E+00   -1.46372812E-01    8.70012774E-01   -5.44091340E-03    2.73749753E-03    5.57234722E-01   -4.26610607E+01    5.57441709E-01   
                   4.00000000E+01    5.00000000E+00   -3.58748741E-01    9.31082518E-01   -9.89923245E-03    3.77765267E-03    1.62641659E+00   -3.78520374E+01    1.62690627E+00   
                   4.50000000E+01    5.00000000E+00   -5.91742095E-01    7.40922442E-01   -1.22006370E-02    2.92972124E-03    1.18370054E+00   -3.63833811E+01    1.18446093E+00   
                   5.00000000E+01    5.00000000E+00   -7.17221919E-01    3.01532612E-01   -1.19692753E-02    1.14710607E-03   -5.34582878E-01   -3.67534348E+01   -5.33545714E-01   
                   5.50000000E+01    5.00000000E+00   -6.42755647E-01   -3.04997890E-01   -9.70290120E-03   -6.19614106E-04   -1.31163345E+00   -3.85987927E+01   -1.31082244E+00   
                   6.00000000E+01    5.00000000E+00   -3.46484971E-01   -9.60676548E-01   -6.38607921E-03   -1.79001996E-03    1.82814105E+00   -4.19213367E+01    1.82832421E+00   
                   6.50000000E+01    5.00000000E+00    1.25127313E-01   -1.55952525E+00   -3.04391837E-03   -2.22021709E-03    5.53321735E+00   -4.68332054E+01    5.53324253E+00   
                   7.00000000E+01    5.00000000E+00    6.83923834E-01   -2.03661982E+00   -4.33748868E-04   -2.06678765E-03    8.28775628E+00   -5.18613947E+01    8.28776048E+00   
                   7.50000000E+01    5.00000000E+00    1.23168750E+00   -2.37271332E+00    1.07159829E-03   -1.59451597E-03    1.01866309E+01   -5.26832892E+01    1.01866331E+01   
                   8.00000000E+01    5.00000000E+00    1.68331629E+00   -2.58153122E+00    1.45592696E-03   -1.02959077E-03    1.14217573E+01   -5.33305277E+01    1.14217587E+01   
                   8.50000000E+01    5.00000000E+00    1.97773425E+00   -2.69058041E+00    9.64316321E-04   -4.92622842E-04    1.21185050E+01   -5.76630623E+01    1.21185054E+01   
                   9.00000000E+01    5.00000000E+00    2.07966370E+00   -2.72384388E+00   -7.09313269E-07   -1.05736919E-07    1.23437821E+01   -1.21242286E+02    1.23437821E+01   
                   9.50000000E+01    5.00000000E+00    1.97773453E+00   -2.69058032E+00   -9.65734591E-04    4.92445890E-04    1.21185052E+01   -5.76535799E+01    1.21185057E+01   
                   1.00000000E+02    5.00000000E+00    1.68331684E+00   -2.58153109E+00   -1.45734314E-03    1.02951729E-03    1.14217578E+01   -5.33251029E+01    1.14217592E+01   
                   1.05000000E+02    5.00000000E+00    1.23168828E+00   -2.37271319E+00   -1.07300710E-03    1.59461407E-03    1.01866317E+01   -5.26793676E+01    1.01866339E+01   
                   1.10000000E+02    5.00000000E+00    6.83924829E-01   -2.03661975E+00    4.32359942E-04    2.06712203E-03    8.28775730E+00   -5.18612200E+01    8.28776150E+00   
                   1.15000000E+02    5.00000000E+00    1.25128512E-01   -1.55952528E+00    3.04257360E-03    2.22084309E-03    5.53321803E+00   -4.68348594E+01    5.53324321E+00   
                   1.20000000E+02    5.00000000E+00   -3.46483562E-01   -9.60676660E-01    6.38481792E-03    1.79097284E-03    1.82813788E+00   -4.19225904E+01    1.82832099E+00   
                   1.25000000E+02    5.00000000E+00   -6.42754009E-01   -3.04998041E-01    9.70177653E-03    6.20894335E-04   -1.31165073E+00   -3.85997225E+01   -1.31083989E+00   
                   1.30000000E+02    5.00000000E+00   -7.17220042E-01    3.01532477E-01    1.19683445E-02   -1.14554713E-03   -5.34602781E-01   -3.67542115E+01   -5.33565798E-01   
                   1.35000000E+02    5.00000000E+00   -5.91740015E-01    7.40922349E-01    1.21999427E-02   -2.92798675E-03    1.18368798E+00   -3.63841288E+01    1.18444824E+00   
                   1.40000000E+02    5.00000000E+00   -3.58746575E-01    9.31082446E-01    9.89877961E-03   -3.77588743E-03    1.62640922E+00   -3.78529001E+01    1.62689880E+00   
                   1.45000000E+02    5.00000000E+00   -1.46370770E-01    8.70012671E-01    5.44065510E-03   -2.73585353E-03    5.57230392E-01   -4.26624434E+01    5.57437314E-01   
                   1.50000000E+02    5.00000000E+00   -5.56705631E-02    6.45279268E-01    1.18882340E-04    5.58731468E-04   -2.12733945E+00   -6.32181438E+01   -2.12733607E+00   
                   1.55000000E+02    5.00000000E+00   -1.05033263E-01    3.92016452E-01   -4.33764290E-03    5.39010192E-03   -6.18732882E+00   -4.15540150E+01   -6.18606684E+00   
                   1.60000000E+02    5.00000000E+00   -2.23127649E-01    2.18135054E-01   -6.63679477E-03    9.96707323E-03   -8.47029871E+00   -3.67893228E+01   -8.46390781E+00   
                   1.65000000E+02    5.00000000E+00   -3.03034893E-01    1.47004409E-01   -6.69054558E-03    1.21463407E-02   -7.80681996E+00   -3.55147742E+01   -7.79946431E+00   
                   1.70000000E+02    5.00000000E+00   -2.81417820E-01    1.22689191E-01   -5.70142913E-03    1.05752615E-02   -8.61174879E+00   -3.67605584E+01   -8.60510262E+00   
                   1.75000000E+02    5.00000000E+00   -1.80349907E-01    7.48419180E-02   -5.38054886E-03    5.54726922E-03   -1.25421270E+01   -4.05931192E+01   -1.25353296E+01   
                   1.80000000E+02    5.00000000E+00   -7.72377189E-02   -1.22842970E-02   -6.75711925E-03   -1.07430998E-03   -2.04894202E+01   -4.16508527E+01   -2.04563083E+01   
                   0.00000000E+00    1.00000000E+01   -7.63545107E-02   -1.21448750E-02    1.34628278E-02    2.14165621E-03   -2.05892965E+01   -3.56632374E+01   -2.04563352E+01   
                   5.00000000E+00    1.00000000E+01   -1.79632991E-01    7.34307156E-02    1.07272709E-02   -1.09070984E-02   -1.25956866E+01   -3.46616142E+01   -1.25687808E+01   
                   1.00000000E+01    1.00000000E+01   -2.81240437E-01    1.20636176E-01    1.13058718E-02   -2.08942954E-02   -8.63945512E+00   -3.08386728E+01   -8.61336013E+00   
                   1.50000000E+01    1.00000000E+01   -3.05181248E-01    1.44033090E-01    1.32567442E-02   -2.41916107E-02   -7.78998161E+00   -2.95407935E+01   -7.76105775E+00   
                   2.00000000E+01    1.00000000E+01   -2.27971731E-01    2.11671428E-01    1.32959934E-02   -2.01499876E-02   -8.49682677E+00   -3.06992631E+01   -8.47075105E+00   
                   2.50000000E+01    1.00000000E+01   -1.08850165E-01    3.79776706E-01    9.04680579E-03   -1.12868402E-02   -6.42106258E+00   -3.51481048E+01   -6.41524437E+00   
                   3.00000000E+01    1.00000000E+01   -5.17745448E-02    6.29731374E-01    5.57251466E-04   -1.70667464E-03   -2.34213463E+00   -5.32715356E+01   -2.34209956E+00   
                   3.50000000E+01    1.00000000E+01   -1.30268322E-01    8.60382821E-01   -9.79888301E-03    5.06464486E-03    4.37770031E-01   -3.75027091E+01    4.38467783E-01   
                   4.00000000E+01    1.00000000E+01   -3.33584298E-01    9.40384027E-01   -1.87276982E-02    7.49940469E-03    1.62635241E+00   -3.22588991E+01    1.62812729E+00   
                   4.50000000E+01    1.00000000E+01   -5.69845099E-01    7.79633397E-01   -2.36712310E-02    6.16259803E-03    1.34222994E+00   -3.05852743E+01    1.34501539E+00   
                   5.00000000E+01    1.00000000E+01   -7.16559837E-01    3.72080894E-01   -2.37713581E-02    2.81823231E-03   -2.12674691E-01   -3.07728021E+01   -2.08858933E-01   
                   5.50000000E+01    1.00000000E+01   -6.80647286E-01   -2.09693698E-01   -1.98498954E-02   -6.87086974E-04   -1.30225992E+00   -3.23941343E+01   -1.29888372E+00   
                   6.00000000E+01    1.00000000E+01   -4.34144780E-01   -8.54309144E-01   -1.37157262E-02   -3.15760639E-03    1.27546877E+00   -3.53858380E+01    1.27640549E+00   
                   6.50000000E+01    1.00000000E+01   -1.50936501E-02   -1.45725514E+00   -7.32235944E-03   -4.22145516E-03    4.91667870E+00   -3.98152286E+01    4.91682478E+00   
                   7.00000000E+01    1.00000000E+01    4.95848831E-01   -1.95031408E+00   -2.15965847E-03   -4.10583856E-03    7.71961259E+00   -4.50256658E+01    7.71963567E+00   
                   7.50000000E+01    1.00000000E+01    1.00522059E+00   -2.30818948E+00    9.99245102E-04   -3.28322166E-03    9.66516517E+00   -4.76437706E+01    9.66517324E+00   
                   8.00000000E+01    1.00000000E+01    1.42979368E+00   -2.53805979E+00    2.06954769E-03   -2.18673130E-03    1.09325606E+01   -4.87809066E+01    1.09325652E+01   
                   8.50000000E+01    1.00000000E+01    1.70845364E+00   -2.66202685E+00    1.48489525E-03   -1.07029753E-03    1.16477590E+01   -5.31034668E+01    1.16477604E+01   
                   9.00000000E+01    1.00000000E+01    1.80524513E+00   -2.70064908E+00   -7.65164433E-07   -1.32868954E-07    1.18790197E+01   -1.20550384E+02    1.18790197E+01   
                   9.50000000E+01    1.00000000E+01    1.70845395E+00   -2.66202677E+00   -1.48642317E-03    1.07006615E-03    1.16477593E+01   -5.30982271E+01    1.16477607E+01   
                   1.00000000E+02    1.00000000E+01    1.42979427E+00   -2.53805966E+00   -2.07106695E-03    2.18660275E-03    1.09325611E+01   -4.87781629E+01    1.09325658E+01   
                   1.05000000E+02    1.00000000E+01    1.00522143E+00   -2.30818937E+00   -1.00074463E-03    3.28326332E-03    9.66516597E+00   -4.76425641E+01    9.66517404E+00   
                   1.10000000E+02    1.00000000E+01    4.95849901E-01   -1.95031402E+00    2.15819886E-03    4.10611432E-03    7.71961350E+00   -4.50264806E+01    7.71963658E+00   
                   1.15000000E+02    1.00000000E+01   -1.50923717E-02   -1.45725518E+00    7.32097370E-03    4.22201981E-03    4.91667885E+00   -3.98161725E+01    4.91682490E+00   
                   1.20000000E+02    1.00000000E+01   -4.34143291E-01   -8.54309264E-01    1.37144644E-02    3.15849484E-03    1.27546363E+00   -3.53864738E+01    1.27640020E+00   
                   1.25000000E+02    1.00000000E+01   -6.80645571E-01   -2.09693859E-01    1.98488200E-02    6.88299080E-04   -1.30227933E+00   -3.23945860E+01   -1.29890346E+00   
                   1.30000000E+02    1.00000000E+01   -7.16557891E-01    3.72080740E-01    2.37705305E-02   -2.81674676E-03   -2.12694038E-01   -3.07731637E+01   -2.08878581E-01   
                   1.35000000E+02    1.00000000E+01   -5.69842962E-01    7.79633270E-01    2.36706888E-02   -6.16094455E-03    1.34221768E+00   -3.05856085E+01    1.34500292E+00   
                   1.40000000E+02    1.00000000E+01   -3.33582094E-01    9.40383905E-01    1.87274300E-02   -7.49772948E-03    1.62634499E+00   -3.22592745E+01    1.62811972E+00   
                   1.45000000E+02    1.00000000E+01   -1.30266264E-01    8.60382657E-01    9.79881555E-03   -5.06309744E-03    4.37765342E-01   -3.75033158E+01    4.38462998E-01   
                   1.50000000E+02    1.00000000E+01   -5.17728956E-02    6.29731150E-01   -5.57240564E-04    1.70799048E-03   -2.34213955E+00   -5.32655022E+01   -2.34210444E+00   
                   1.55000000E+02    1.00000000E+01   -1.08849147E-01    3.79776476E-01   -9.04684789E-03    1.12879032E-02   -6.42107360E+00   -3.51475909E+01   -6.41525469E+00   
                   1.60000000E+02    1.00000000E+01   -2.27971427E-01    2.11671327E-01   -1.32961767E-02    2.01508600E-02   -8.49683489E+00   -3.06989648E+01   -8.47075734E+00   
                   1.65000000E+02    1.00000000E+01   -3.05181546E-01    1.44033276E-01   -1.32570787E-02    2.41923978E-02   -7.78997264E+00   -2.95405256E+01   -7.76104707E+00   
                   1.70000000E+02    1.00000000E+01   -2.81241057E-01    1.20636732E-01   -1.13062918E-02    2.08950848E-02   -8.63943272E+00   -3.08383459E+01   -8.61333591E+00   
                   1.75000000E+02    1.00000000E+01   -1.79633604E-01    7.34315786E-02   -1.07276732E-02    1.09079129E-02   -1.25956465E+01   -3.46611244E+01   -1.25687380E+01   
                   1.80000000E+02    1.00000000E+01   -7.63548843E-02   -1.21439193E-02   -1.34631171E-02   -2.14086893E-03   -2.05892719E+01   -3.56631342E+01   -2.04563083E+01   
                   0.00000000E+00    1.50000000E+01   -7.48905960E-02   -1.19120024E-02    2.00663318E-02    3.19200216E-03   -2.07574452E+01   -3.21966125E+01   -2.04563352E+01   
                   5.00000000E+00    1.50000000E+01   -1.78442407E-01    7.11282582E-02    1.60089515E-02   -1.58992550E-02   -1.26841270E+01   -3.12866999E+01   -1.26246226E+01   
                   1.00000000E+01    1.50000000E+01   -2.80922729E-01    1.17273894E-01    1.67226858E-02   -3.06987316E-02   -8.68507253E+00   -2.74835726E+01   -8.62817592E+00   
                   1.50000000E+01    1.50000000E+01   -3.08677953E-01    1.39202438E-01    1.95697883E-02   -3.60072539E-02   -7.76040256E+00   -2.61027017E+01   -7.69724972E+00   
                   2.00000000E+01    1.50000000E+01   -2.36094085E-01    2.01175013E-01    1.99601079E-02   -3.07159451E-02   -8.52221557E+00   -2.70773779E+01   -8.46206261E+00   
                   2.50000000E+01    1.50000000E+01   -1.15815268E-01    3.59571706E-01    1.44141786E-02   -1.81591760E-02   -6.81010757E+00   -3.10505187E+01   -6.79377981E+00   
                   3.00000000E+01    1.50000000E+01   -4.66209630E-02    6.03087694E-01    2.72040510E-03   -4.04770868E-03   -2.72101411E+00   -4.45915498E+01   -2.72073180E+00   
                   3.50000000E+01    1.50000000E+01   -1.04770424E-01    8.41540692E-01   -1.20547168E-02    6.49263970E-03    2.13801904E-01   -3.56251682E+01    2.14933863E-01   
                   4.00000000E+01    1.50000000E+01   -2.91125315E-01    9.50471644E-01   -2.53768428E-02    1.09795085E-02    1.59373095E+00   -2.95205324E+01    1.59708979E+00   
                   4.50000000E+01    1.50000000E+01   -5.28583107E-01    8.36935009E-01   -3.35098768E-02    9.87117768E-03    1.55714257E+00   -2.74896480E+01    1.56254805E+00   
                   5.00000000E+01    1.50000000E+01   -7.04599842E-01    4.82950836E-01   -3.49443868E-02    5.46149138E-03    2.76958926E-01   -2.73821410E+01    2.84397716E-01   
                   5.50000000E+01    1.50000000E+01   -7.26413177E-01   -5.39657188E-02   -3.05142155E-02    3.62935418E-04   -1.10692157E+00   -2.86638406E+01   -1.09930584E+00   
                   6.00000000E+01    1.50000000E+01   -5.57434373E-01   -6.73736143E-01   -2.25452532E-02   -3.57598538E-03    4.80147539E-01   -3.11854875E+01    4.83106048E-01   
                   6.50000000E+01    1.50000000E+01   -2.22676034E-01   -1.27542905E+00   -1.37177043E-02   -5.61481706E-03    3.88902841E+00   -3.49361673E+01    3.88959757E+00   
                   7.00000000E+01    1.50000000E+01    2.09543394E-01   -1.78677348E+00   -6.18456584E-03   -5.89330638E-03    6.74621393E+00   -3.97224656E+01    6.74631186E+00   
                   7.50000000E+01    1.50000000E+01    6.54251169E-01   -2.17362512E+00   -1.15398040E-03   -4.97753600E-03    8.76584167E+00   -4.41868403E+01    8.76586368E+00   
                   8.00000000E+01    1.50000000E+01    1.03227549E+00   -2.43304002E+00    1.12946007E-03   -3.46070749E-03    1.00873369E+01   -4.71316270E+01    1.00873451E+01   
                   8.50000000E+01    1.50000000E+01    1.28336316E+00   -2.57847744E+00    1.18006355E-03   -1.74431036E-03    1.08339616E+01   -5.18853978E+01    1.08339639E+01   
                   9.00000000E+01    1.50000000E+01    1.37107831E+00   -2.62489545E+00   -8.02477588E-07   -1.19787136E-07    1.10754631E+01   -1.20170134E+02    1.10754631E+01   
                   9.50000000E+01    1.50000000E+01    1.28336349E+00   -2.57847738E+00   -1.18166370E-03    1.74410540E-03    1.08339619E+01   -5.18823984E+01    1.08339642E+01   
                   1.00000000E+02    1.50000000E+01    1.03227612E+00   -2.43303992E+00   -1.13104376E-03    3.46060571E-03    1.00873374E+01   -4.71306848E+01    1.00873456E+01   
                   1.05000000E+02    1.50000000E+01    6.54252081E-01   -2.17362503E+00    1.15243128E-03    4.97760376E-03    8.76584236E+00   -4.41873225E+01    8.76586436E+00   
                   1.10000000E+02    1.50000000E+01    2.09544543E-01   -1.78677345E+00    6.18308068E-03    5.89360514E-03    6.74621443E+00   -3.97233492E+01    6.74631234E+00   
                   1.15000000E+02    1.50000000E+01   -2.22674671E-01   -1.27542911E+00    1.37163279E-02    5.61539764E-03    3.88902721E+00   -3.49367849E+01    3.88959629E+00   
                   1.20000000E+02    1.50000000E+01   -5.57432801E-01   -6.73736276E-01    2.25440462E-02    3.57687740E-03    4.80138603E-01   -3.11858879E+01    4.83096845E-01   
                   1.25000000E+02    1.50000000E+01   -7.26411386E-01   -5.39658955E-02    3.05132473E-02   -3.61738403E-04   -1.10694271E+00   -2.86641202E+01   -1.09932743E+00   
                   1.30000000E+02    1.50000000E+01   -7.04597836E-01    4.82950654E-01    3.49437179E-02   -5.46004573E-03    2.76941055E-01   -2.73823582E+01    2.84379504E-01   
                   1.35000000E+02    1.50000000E+01   -5.28580934E-01    8.36934836E-01    3.35095333E-02   -9.86959265E-03    1.55713110E+00   -2.74898413E+01    1.56253637E+00   
                   1.40000000E+02    1.50000000E+01   -2.91123106E-01    9.50471458E-01    2.53767911E-02   -1.09779285E-02    1.59372374E+00   -2.95207444E+01    1.59708243E+00   
                   1.45000000E+02    1.50000000E+01   -1.04768392E-01    8.41540457E-01    1.20548553E-02   -6.49120463E-03    2.13796938E-01   -3.56255225E+01    2.14928806E-01   
                   1.50000000E+02    1.50000000E+01   -4.66193601E-02    6.03087402E-01   -2.72022607E-03    4.04891239E-03   -2.72102006E+00   -4.45899484E+01   -2.72073765E+00   
                   1.55000000E+02    1.50000000E+01   -1.15814299E-01    3.59571421E-01   -1.44141085E-02    1.81601483E-02   -6.81012063E+00   -3.10502498E+01   -6.79379181E+00   
                   1.60000000E+02    1.50000000E+01   -2.36093813E-01    2.01174869E-01   -1.99602385E-02    3.07167667E-02   -8.52222400E+00   -2.70771976E+01   -8.46206845E+00   
                   1.65000000E+02    1.50000000E+01   -3.08678250E-01    1.39202581E-01   -1.95701191E-02    3.60080396E-02   -7.76039409E+00   -2.61025220E+01   -7.69723877E+00   
                   1.70000000E+02    1.50000000E+01   -2.80923322E-01    1.17274396E-01   -1.67231317E-02    3.06995650E-02   -8.68505139E+00   -2.74833377E+01   -8.62815200E+00   
                   1.75000000E+02    1.50000000E+01   -1.78442984E-01    7.11290524E-02   -1.60093891E-02    1.59001429E-02   -1.26840894E+01   -3.12863395E+01   -1.26245807E+01   
                   1.80000000E+02    1.50000000E+01   -7.48909430E-02   -1.19111190E-02   -2.00666526E-02   -3.19113458E-03   -2.07574218E+01   -3.21965353E+01   -2.04563083E+01   
                   0.00000000E+00    2.00000000E+01   -7.28567186E-02   -1.15884724E-02    2.65171188E-02    4.21805505E-03   -2.09965992E+01   -2.97754502E+01   -2.04563352E+01   
                   5.00000000E+00    2.00000000E+01   -1.76781777E-01    6.80047433E-02    2.11965805E-02   -2.03504475E-02   -1.28064055E+01   -2.89921989E+01   -1.27031221E+01   
                   1.00000000E+01    2.00000000E+01   -2.80429095E-01    1.12690935E-01    2.18706306E-02   -3.97217520E-02   -8.74790214E+00   -2.52239679E+01   -8.65122255E+00   
                   1.50000000E+01    2.00000000E+01   -3.13398354E-01    1.32696772E-01    2.54925212E-02   -4.74082872E-02   -7.71640245E+00   -2.37343931E+01   -7.60910013E+00   
                   2.00000000E+01    2.00000000E+01   -2.47534304E-01    1.87082238E-01    2.65388843E-02   -4.17299339E-02   -8.51945426E+00   -2.44704677E+01   -8.41050504E+00   
                   2.50000000E+01    2.00000000E+01   -1.26769345E-01    3.31814733E-01    2.05652204E-02   -2.63832540E-02   -7.34488699E+00   -2.78661812E+01   -7.30653957E+00   
                   3.00000000E+01    2.00000000E+01   -4.22447796E-02    5.64583621E-01    6.85272545E-03   -8.18135482E-03   -3.29568644E+00   -3.77894749E+01   -3.29414357E+00   
                   3.50000000E+01    2.00000000E+01   -7.22913320E-02    8.09828895E-01   -1.13442331E-02    6.39449920E-03   -1.52163393E-01   -3.60607209E+01   -1.51049425E-01   
                   4.00000000E+01    2.00000000E+01   -2.31705817E-01    9.53657942E-01   -2.87204549E-02    1.37794407E-02    1.48244495E+00   -2.82909619E+01    1.48701809E+00   
                   4.50000000E+01    2.00000000E+01   -4.62758192E-01    9.01748623E-01   -4.05499276E-02    1.39454637E-02    1.76245570E+00   -2.57092189E+01    1.77022226E+00   
                   5.00000000E+01    2.00000000E+01   -6.67573251E-01    6.22449396E-01   -4.45178378E-02    9.31674039E-03    8.52458149E-01   -2.51976509E+01    8.63228622E-01   
                   5.50000000E+01    2.00000000E+01   -7.56383011E-01    1.54038492E-01   -4.10897576E-02    3.03676281E-03   -6.03179835E-01   -2.60561707E+01   -5.90824136E-01   
                   6.00000000E+01    2.00000000E+01   -6.83603582E-01   -4.19416574E-01   -3.26884694E-02   -2.40898026E-03   -2.70875886E-01   -2.80430848E+01   -2.63628173E-01   
                   6.50000000E+01    2.00000000E+01   -4.58247461E-01   -1.00396735E+00   -2.24087846E-02   -5.76762780E-03    2.50176401E+00   -3.10675600E+01    2.50367279E+00   