##File Type: Far field
##File Format: 5
##Source: Yagi_6_element_V0_1_No_panel
##Date: 2018-08-01 09:31:04
** File exported by POSTFEKO version 2018-319328 (x64)

#Configuration Name: StandardConfiguration1
#Request Name: Yagi_FarField
#Frequency: 5.80000000E+09
#Coordinate System: Spherical
#No. of Theta Samples: 37
#No. of Phi Samples: 73
#Result Type: Directivity
#No. of Header Lines: 1
#                 "Theta"           "Phi"             "Re(Etheta)"      "Im(Etheta)"      "Re(Ephi)"        "Im(Ephi)"        "Directivity(Theta)""Directivity(Phi)""Directivity(Total)"
                   0.00000000E+00    0.00000000E+00    3.27444045E-05    5.93480295E-04   -3.25821962E-05   -2.81849828E-05   -5.71667473E+01   -7.99623109E+01   -5.71439916E+01   
                   5.00000000E+00    0.00000000E+00   -2.27750138E-02    8.83833009E-03   -3.77604754E-05   -2.12274059E-05   -2.48896594E+01   -7.99146893E+01   -2.48896458E+01   
                   1.00000000E+01    0.00000000E+00   -1.87277388E-02    2.40626914E-02   -4.72056080E-05   -1.66395201E-05   -2.29644524E+01   -7.86595751E+01   -2.29644407E+01   
                   1.50000000E+01    0.00000000E+00    5.77838472E-03    6.59580292E-02   -5.90095140E-05   -1.67042170E-05   -1.62295155E+01   -7.68948630E+01   -1.62295118E+01   
                   2.00000000E+01    0.00000000E+00    2.90648205E-02    1.42215077E-01   -7.01663413E-05   -2.23332213E-05   -9.41145064E+00   -7.53064079E+01   -9.41144952E+00   
                   2.50000000E+01    0.00000000E+00    2.60803529E-02    2.40308803E-01   -7.76493703E-05   -3.26439000E-05   -4.98182594E+00   -7.41385198E+01   -4.98182541E+00   
                   3.00000000E+01    0.00000000E+00   -1.70903018E-02    3.30040308E-01   -7.94956278E-05   -4.53130970E-05   -2.26510437E+00   -7.34193502E+01   -2.26510404E+00   
                   3.50000000E+01    0.00000000E+00   -9.42743678E-02    3.75391605E-01   -7.53989638E-05   -5.74910445E-05   -8.92766757E-01   -7.31103686E+01   -8.92766496E-01   
                   4.00000000E+01    0.00000000E+00   -1.80298315E-01    3.49177792E-01   -6.66146854E-05   -6.68076281E-05   -7.60683535E-01   -7.31537953E+01   -7.60683284E-01   
                   4.50000000E+01    0.00000000E+00   -2.40820517E-01    2.43209906E-01   -5.53340841E-05   -7.20389461E-05   -1.96081466E+00   -7.34827602E+01   -1.96081436E+00   
                   5.00000000E+01    0.00000000E+00   -2.45441822E-01    6.99673380E-02   -4.38881737E-05   -7.32453120E-05   -4.50978845E+00   -7.40201744E+01   -4.50978796E+00   
                   5.50000000E+01    0.00000000E+00   -1.78065930E-01   -1.43515314E-01   -3.41192608E-05   -7.14623191E-05   -5.46271466E+00   -7.46747147E+01   -5.46271414E+00   
                   6.00000000E+01    0.00000000E+00   -4.09826859E-02   -3.65552462E-01   -2.70913763E-05   -6.81801669E-05   -1.33483310E+00   -7.53382512E+01   -1.33483293E+00   
                   6.50000000E+01    0.00000000E+00    1.47388394E-01   -5.68921427E-01   -2.31245805E-05   -6.48477225E-05    2.73508584E+00   -7.58903147E+01    2.73508590E+00   
                   7.00000000E+01    0.00000000E+00    3.58703136E-01   -7.36187036E-01   -2.20251972E-05   -6.25415593E-05    5.61681621E+00   -7.62169477E+01    5.61681624E+00   
                   7.50000000E+01    0.00000000E+00    5.61813327E-01   -8.60543209E-01   -2.33641241E-05   -6.18273872E-05    7.58925973E+00   -7.62447423E+01    7.58925974E+00   
                   8.00000000E+01    0.00000000E+00    7.28573080E-01   -9.43249032E-01   -2.66968848E-05   -6.27667810E-05    8.87645320E+00   -7.59713103E+01    8.87645322E+00   
                   8.50000000E+01    0.00000000E+00    8.37454060E-01   -9.89470349E-01   -3.16778191E-05   -6.49997728E-05    9.60600357E+00   -7.54643402E+01    9.60600359E+00   
                   9.00000000E+01    0.00000000E+00    8.75218092E-01   -1.00420844E+00   -3.80671881E-05   -6.78494441E-05    9.84254262E+00   -7.48286125E+01    9.84254263E+00   
                   9.50000000E+01    0.00000000E+00    8.37428030E-01   -9.89464226E-01   -4.56557653E-05   -7.04256480E-05    9.60585957E+00   -7.41697441E+01    9.60585959E+00   
                   1.00000000E+02    0.00000000E+00    7.28522995E-01   -9.43234752E-01   -5.41427039E-05   -7.17332934E-05    8.87614772E+00   -7.35755203E+01    8.87614775E+00   
                   1.05000000E+02    0.00000000E+00    5.61743312E-01   -8.60517224E-01   -6.30087595E-05   -7.08055479E-05    7.58875233E+00   -7.31136038E+01    7.58875236E+00   
                   1.10000000E+02    0.00000000E+00    3.58619652E-01   -7.36145272E-01   -7.14334761E-05   -6.68786920E-05    5.61603013E+00   -7.28364587E+01    5.61603020E+00   
                   1.15000000E+02    0.00000000E+00    1.47300193E-01   -5.68860650E-01   -7.83085685E-05   -5.96020202E-05    2.73388937E+00   -7.27872422E+01    2.73388949E+00   
                   1.20000000E+02    0.00000000E+00   -4.10651286E-02   -3.65471776E-01   -8.23896686E-05   -4.92379254E-05   -1.33650950E+00   -7.30043314E+01   -1.33650920E+00   
                   1.25000000E+02    0.00000000E+00   -1.78131679E-01   -1.43417402E-01   -8.25924051E-05   -3.67687014E-05   -5.46310280E+00   -7.35240235E+01   -5.46310212E+00   
                   1.30000000E+02    0.00000000E+00   -2.45481387E-01    7.00756767E-02   -7.83735192E-05   -2.38130287E-05   -4.50748245E+00   -7.43811923E+01   -4.50748201E+00   
                   1.35000000E+02    0.00000000E+00   -2.40828016E-01    2.43318347E-01   -7.00622982E-05   -1.22941337E-05   -1.95872532E+00   -7.56066790E+01   -1.95872513E+00   
                   1.40000000E+02    0.00000000E+00   -1.80273249E-01    3.49274322E-01   -5.89659410E-05   -3.90266441E-06   -7.59041991E-01   -7.72170665E+01   -7.59041893E-01   
                   1.45000000E+02    0.00000000E+00   -9.42222854E-02    3.75465299E-01   -4.71157858E-05    4.71019138E-07   -8.91447438E-01   -7.91843109E+01   -8.91447373E-01   
                   1.50000000E+02    0.00000000E+00   -1.70218437E-02    3.30084285E-01   -3.66688409E-05    1.07415571E-06   -2.26404300E+00   -8.13584050E+01   -2.26404295E+00   
                   1.55000000E+02    0.00000000E+00    2.61519816E-02    2.40322366E-01   -2.91792752E-05   -8.18479220E-07   -4.98106340E+00   -8.33431680E+01   -4.98106333E+00   
                   1.60000000E+02    0.00000000E+00    2.91273172E-02    1.42204162E-01   -2.50874130E-05   -3.47878201E-06   -9.41134091E+00   -8.45762411E+01   -9.41134078E+00   
                   1.65000000E+02    0.00000000E+00    5.82365656E-03    6.59336462E-02   -2.37185457E-05   -5.51023468E-06   -1.62321819E+01   -8.49180241E+01   -1.62321813E+01   
                   1.70000000E+02    0.00000000E+00   -1.87015652E-02    2.40377378E-02   -2.38224771E-05   -6.42405064E-06   -2.29746472E+01   -8.48034782E+01   -2.29746443E+01   
                   1.75000000E+02    0.00000000E+00   -2.27635984E-02    8.82380721E-03   -2.43558545E-05   -6.67167870E-06   -2.48953125E+01   -8.46017805E+01   -2.48953078E+01   
                   1.80000000E+02    0.00000000E+00    3.79428533E-05    5.95386106E-04   -2.50390406E-05   -7.12020328E-06   -5.71344976E+01   -8.43380139E+01   -5.71262369E+01   
                   0.00000000E+00    5.00000000E+00    2.97800767E-05    5.88765441E-04   -3.53120740E-05   -7.98029464E-05   -5.72381308E+01   -7.38311164E+01   -5.71439916E+01   
                   5.00000000E+00    5.00000000E+00   -2.28233707E-02    8.83541833E-03    9.22552224E-06   -6.54607909E-05   -2.48740167E+01   -7.62430354E+01   -2.48739851E+01   
                   1.00000000E+01    5.00000000E+00   -1.89265193E-02    2.39544367E-02    3.86929616E-05   -3.52217124E-05   -2.29537834E+01   -7.82741925E+01   -2.29537706E+01   
                   1.50000000E+01    5.00000000E+00    5.47352067E-03    6.55250025E-02    4.52938924E-05   -7.63838328E-07   -1.62897338E+01   -7.95260459E+01   -1.62897317E+01   
                   2.00000000E+01    5.00000000E+00    2.89618843E-02    1.41345329E-01    2.95670887E-05    2.42602049E-05   -9.46383124E+00   -8.09963125E+01   -9.46383093E+00   
                   2.50000000E+01    5.00000000E+00    2.66393602E-02    2.39268366E-01   -3.45760846E-07    2.95883132E-05   -5.01686442E+00   -8.32250766E+01   -5.01686436E+00   
                   3.00000000E+01    5.00000000E+00   -1.55718296E-02    3.29590273E-01   -3.24125023E-05    1.18996678E-05   -2.27890254E+00   -8.18846831E+01   -2.27890250E+00   
                   3.50000000E+01    5.00000000E+00   -9.20035387E-02    3.76634105E-01   -5.54642194E-05   -2.47240838E-05   -8.77966719E-01   -7.69806828E+01   -8.77966613E-01   
                   4.00000000E+01    5.00000000E+00   -1.78149862E-01    3.53183042E-01   -6.28858910E-05   -7.11253263E-05   -7.03606523E-01   -7.30991645E+01   -7.03606273E-01   
                   4.50000000E+01    5.00000000E+00   -2.40216604E-01    2.50607860E-01   -5.39993744E-05   -1.16737924E-04   -1.83790353E+00   -7.04617538E+01   -1.83790294E+00   
                   5.00000000E+01    5.00000000E+00   -2.48001317E-01    8.07000122E-02   -3.31344673E-05   -1.52916266E-04   -4.32188973E+00   -6.87597330E+01   -4.32188817E+00   
                   5.50000000E+01    5.00000000E+00   -1.85183978E-01   -1.30181421E-01   -7.31118980E-06   -1.74814329E-04   -5.55195640E+00   -6.77889435E+01   -5.55195380E+00   
                   6.00000000E+01    5.00000000E+00   -5.35087788E-02   -3.50785321E-01    1.62764708E-05   -1.81581734E-04   -1.64734970E+00   -6.74318752E+01   -1.64734856E+00   
                   6.50000000E+01    5.00000000E+00    1.29280268E-01   -5.53973916E-01    3.20938110E-05   -1.75339088E-04    2.45201794E+00   -6.76273810E+01    2.45201837E+00   
                   7.00000000E+01    5.00000000E+00    3.35456669E-01   -7.22073179E-01    3.70865547E-05   -1.59667141E-04    5.37227665E+00   -6.83555574E+01    5.37227684E+00   
                   7.50000000E+01    5.00000000E+00    5.34317314E-01   -8.47830897E-01    3.06330986E-05   -1.38238428E-04    7.37061375E+00   -6.96273091E+01    7.37061384E+00   
                   8.00000000E+01    5.00000000E+00    6.97965159E-01   -9.31997695E-01    1.40020437E-05   -1.13932727E-04    8.67380270E+00   -7.14499994E+01    8.67380274E+00   
                   8.50000000E+01    5.00000000E+00    8.04969066E-01   -9.79294145E-01   -1.03122228E-05   -8.85003869E-05    9.41206401E+00   -7.36506015E+01    9.41206403E+00   
                   9.00000000E+01    5.00000000E+00    8.42108372E-01   -9.94424541E-01   -3.91381051E-05   -6.26701970E-05    9.65137136E+00   -7.52766684E+01    9.65137137E+00   
                   9.50000000E+01    5.00000000E+00    8.04944110E-01   -9.79286312E-01   -6.89868689E-05   -3.65454239E-05    9.41191396E+00   -7.47985104E+01    9.41191398E+00   
                   1.00000000E+02    5.00000000E+00    6.97917285E-01   -9.31980080E-01   -9.62822834E-05   -1.01443408E-05    8.67348345E+00   -7.29292015E+01    8.67348348E+00   
                   1.05000000E+02    5.00000000E+00    5.34250753E-01   -8.47800125E-01   -1.17589024E-04    1.60366544E-05    7.37008052E+00   -7.11607048E+01    7.37008058E+00   
                   1.10000000E+02    5.00000000E+00    3.35377993E-01   -7.22025448E-01   -1.29974497E-04    4.05634698E-05    5.37144277E+00   -6.99672657E+01    5.37144289E+00   
                   1.15000000E+02    5.00000000E+00    1.29198298E-01   -5.53906354E-01   -1.31575427E-04    6.08653520E-05    2.45072885E+00   -6.94224318E+01    2.45072913E+00   
                   1.20000000E+02    5.00000000E+00   -5.35835886E-02   -3.50697458E-01   -1.22308986E-04    7.34756218E-05   -1.64919963E+00   -6.95606896E+01   -1.64919893E+00   
                   1.25000000E+02    5.00000000E+00   -1.85240839E-01   -1.30076392E-01   -1.04491651E-04    7.48434644E-05   -5.55248802E+00   -7.04679603E+01   -5.55248662E+00   
                   1.30000000E+02    5.00000000E+00   -2.48031016E-01    8.08149999E-02   -8.29759565E-05    6.26750153E-05   -4.31976377E+00   -7.23085447E+01   -4.31976308E+00   
                   1.35000000E+02    5.00000000E+00   -2.40213643E-01    2.50722173E-01   -6.44009215E-05    3.74645408E-05   -1.83588997E+00   -7.52043063E+01   -1.83588977E+00   
                   1.40000000E+02    5.00000000E+00   -1.78114175E-01    3.53284497E-01   -5.53891099E-05    3.56160467E-06   -7.01970385E-01   -7.77616663E+01   -7.01970299E-01   
                   1.45000000E+02    5.00000000E+00   -9.19410879E-02    3.76711759E-01   -6.00257852E-05   -3.10010542E-05   -8.76608658E-01   -7.60544649E+01   -8.76608526E-01   
                   1.50000000E+02    5.00000000E+00   -1.54936023E-02    3.29637351E-01   -7.75463381E-05   -5.64037427E-05   -2.27776163E+00   -7.30126430E+01   -2.27776126E+00   
                   1.55000000E+02    5.00000000E+00    2.67199144E-02    2.39284367E-01   -1.01478313E-04   -6.43968707E-05   -5.01596866E+00   -7.10509569E+01   -5.01596758E+00   
                   1.60000000E+02    5.00000000E+00    2.90323295E-02    1.41336443E-01   -1.21172925E-04   -5.19236661E-05   -9.46350300E+00   -7.02478397E+01   -9.46349937E+00   
                   1.65000000E+02    5.00000000E+00    5.52574401E-03    6.55025215E-02   -1.25644824E-04   -2.32471386E-05   -1.62921163E+01   -7.05189962E+01   -1.62920999E+01   
                   1.70000000E+02    5.00000000E+00   -1.88942943E-02    2.39315452E-02   -1.08328742E-04    1.08603649E-05   -2.29645837E+01   -7.19097675E+01   -2.29645283E+01   
                   1.75000000E+02    5.00000000E+00   -2.28065885E-02    8.82337358E-03   -7.05280398E-05    3.70274990E-05   -2.48811171E+01   -7.46235931E+01   -2.48810710E+01   
                   1.80000000E+02    5.00000000E+00    3.99807658E-05    5.93741048E-04   -2.16368219E-05    4.47982095E-05   -5.71564846E+01   -7.87122662E+01   -5.71262369E+01   
                   0.00000000E+00    1.00000000E+01    2.65891045E-05    5.79569725E-04   -3.77732056E-05   -1.30813561E-04   -5.73768288E+01   -6.99672100E+01   -5.71439916E+01   
                   5.00000000E+00    1.00000000E+01   -2.29612854E-02    8.83092307E-03    5.51361537E-05   -1.09637885E-04   -2.48290427E+01   -7.08696910E+01   -2.48289346E+01   
                   1.00000000E+01    1.00000000E+01   -1.95144092E-02    2.36380246E-02    1.23071776E-04   -5.50361249E-05   -2.29187898E+01   -7.00531773E+01   -2.29187058E+01   
                   1.50000000E+01    1.00000000E+01    4.55746116E-03    6.42416795E-02    1.48993703E-04    1.28183101E-05   -1.64699335E+01   -6.91526891E+01   -1.64699101E+01   
                   2.00000000E+01    1.00000000E+01    2.86211782E-02    1.38743089E-01    1.30677226E-04    6.85236519E-05   -9.62285612E+00   -6.92690849E+01   -9.62285141E+00   
                   2.50000000E+01    1.00000000E+01    2.82462875E-02    2.36097310E-01    8.04633944E-05    9.12175143E-05   -5.12453163E+00   -7.09469262E+01   -5.12453049E+00   
                   3.00000000E+01    1.00000000E+01   -1.10886237E-02    3.28065380E-01    1.93758162E-05    7.17444201E-05   -2.32390694E+00   -7.52265717E+01   -2.32390672E+00   
                   3.50000000E+01    1.00000000E+01   -8.51690270E-02    3.80010390E-01   -3.12851292E-05    1.45865325E-05   -8.39315691E-01   -8.18870376E+01   -8.39315657E-01   
                   4.00000000E+01    1.00000000E+01   -1.71447212E-01    3.64680656E-01   -5.71208965E-05   -6.53977045E-05   -5.42584478E-01   -7.38745581E+01   -5.42584276E-01   
                   4.50000000E+01    1.00000000E+01   -2.37770975E-01    2.72211188E-01   -5.40496261E-05   -1.49193451E-04   -1.48751256E+00   -6.86375082E+01   -1.48751173E+00   
                   5.00000000E+01    1.00000000E+01   -2.54579024E-01    1.12403137E-01   -2.75188851E-05   -2.19853540E-04   -3.75814300E+00   -6.57378897E+01   -3.75814025E+00   
                   5.50000000E+01    1.00000000E+01   -2.04963843E-01   -9.03800069E-02    1.11501212E-05   -2.66516512E-04   -5.64287774E+00   -6.41259965E+01   -5.64287158E+00   
                   6.00000000E+01    1.00000000E+01   -8.91162505E-02   -3.06213359E-01    4.92411291E-05   -2.85475921E-04   -2.57450862E+00   -6.34093574E+01   -2.57450504E+00   
                   6.50000000E+01    1.00000000E+01    7.71921577E-02   -5.08279709E-01    7.62441526E-05   -2.78871640E-04    1.57301114E+00   -6.34269169E+01    1.57301252E+00   
                   7.00000000E+01    1.00000000E+01    2.68077184E-01   -6.78273834E-01    8.57777395E-05   -2.52217244E-04    4.61039576E+00   -6.41372425E+01    4.61039634E+00   
                   7.50000000E+01    1.00000000E+01    4.54199603E-01   -8.07686538E-01    7.59009752E-05   -2.11930158E-04    6.69011241E+00   -6.56001062E+01    6.69011266E+00   
                   8.00000000E+01    1.00000000E+01    6.08460572E-01   -8.95805795E-01    4.83825984E-05   -1.63588515E-04    8.04376697E+00   -6.80088337E+01    8.04376707E+00   
                   8.50000000E+01    1.00000000E+01    7.09775184E-01   -9.46056377E-01    7.57657018E-06   -1.11141422E-04    8.80949331E+00   -7.17104189E+01    8.80949335E+00   
                   9.00000000E+01    1.00000000E+01    7.45015507E-01   -9.62272191E-01   -4.06371067E-05   -5.69557530E-05    9.05752341E+00   -7.57502520E+01    9.05752342E+00   
                   9.50000000E+01    1.00000000E+01    7.09751737E-01   -9.46046234E-01   -8.96672263E-05   -2.43397977E-06    8.80933039E+00   -7.35922002E+01    8.80933041E+00   
                   1.00000000E+02    1.00000000E+01    6.08415811E-01   -8.95783741E-01   -1.32839969E-04    5.10817388E-05    8.04341890E+00   -6.95825794E+01    8.04341898E+00   
                   1.05000000E+02    1.00000000E+01    4.54137903E-01   -8.07649554E-01   -1.64030369E-04    1.01386088E-04    6.68952674E+00   -6.69443841E+01    6.68952693E+00   
                   1.10000000E+02    1.00000000E+01    2.68005244E-01   -6.78218639E-01   -1.78489765E-04    1.44739455E-04    4.60946948E+00   -6.54210678E+01    4.60946991E+00   
                   1.15000000E+02    1.00000000E+01    7.71188190E-02   -5.08204077E-01   -1.73936276E-04    1.75748397E-04    1.57156172E+00   -6.47847251E+01    1.57156272E+00   
                   1.20000000E+02    1.00000000E+01   -8.91807011E-02   -3.06117519E-01   -1.51735132E-04    1.88085920E-04   -2.57652429E+00   -6.49839554E+01   -2.57652179E+00   
                   1.25000000E+02    1.00000000E+01   -2.05009005E-01   -9.02677338E-02   -1.17703968E-04    1.76193378E-04   -5.64303062E+00   -6.61257718E+01   -5.64302673E+00   
                   1.30000000E+02    1.00000000E+01   -2.54596268E-01    1.12524169E-01   -8.18717874E-05    1.37752544E-04   -3.75612446E+00   -6.85523345E+01   -3.75612302E+00   
                   1.35000000E+02    1.00000000E+01   -2.37755483E-01    2.72330141E-01   -5.65945358E-05    7.61962400E-05   -1.48560444E+00   -7.31014002E+01   -1.48560414E+00   
                   1.40000000E+02    1.00000000E+01   -1.71399562E-01    3.64785430E-01   -5.29418949E-05    2.05658915E-06   -5.40977633E-01   -7.81655354E+01   -5.40977558E-01   
                   1.45000000E+02    1.00000000E+01   -8.50956547E-02    3.80090348E-01   -7.61761794E-05   -6.81071296E-05   -8.37933272E-01   -7.24604900E+01   -8.37932974E-01   
                   1.50000000E+02    1.00000000E+01   -1.10007487E-02    3.28114167E-01   -1.22081282E-04   -1.15788935E-04   -2.32269505E+00   -6.81285344E+01   -2.32269391E+00   
                   1.55000000E+02    1.00000000E+01    2.83352184E-02    2.36114820E-01   -1.76251397E-04   -1.26839383E-04   -5.12351011E+00   -6.59130003E+01   -5.12350648E+00   
                   1.60000000E+02    1.00000000E+01    2.86988904E-02    1.38735802E-01   -2.17683855E-04   -9.76830681E-05   -9.62232971E+00   -6.50947960E+01   -9.62231739E+00   
                   1.65000000E+02    1.00000000E+01    4.61606413E-03    6.42210529E-02   -2.26151907E-04   -3.84031591E-05   -1.64721456E+01   -6.54366076E+01   -1.64720905E+01   
                   1.70000000E+02    1.00000000E+01   -1.94764788E-02    2.36173217E-02   -1.90662075E-04    2.95393063E-05   -2.29301628E+01   -6.69397736E+01   -2.29299903E+01   
                   1.75000000E+02    1.00000000E+01   -2.29392838E-02    8.82145601E-03   -1.15114760E-04    8.08541918E-05   -2.48374971E+01   -6.96838773E+01   -2.48373548E+01   
                   1.80000000E+02    1.00000000E+01    4.17144006E-05    5.87577263E-04   -1.80699338E-05    9.63756809E-05   -5.72449400E+01   -7.28186737E+01   -5.71262369E+01   
                   0.00000000E+00    1.50000000E+01    2.31957731E-05    5.65963134E-04   -3.99468603E-05   -1.80828606E-04   -5.75850220E+01   -6.72957990E+01   -5.71439916E+01   
                   5.00000000E+00    1.50000000E+01   -2.31872224E-02    8.82649950E-03    9.85787314E-05   -1.53786580E-04   -2.47554095E+01   -6.74147618E+01   -2.47551741E+01   
                   1.00000000E+01    1.50000000E+01   -2.04910147E-02    2.31298033E-02    2.03854450E-04   -7.73127793E-05   -2.28486336E+01   -6.58780390E+01   -2.28484174E+01   
                   1.50000000E+01    1.50000000E+01    2.99529657E-03    6.21470476E-02    2.50573083E-04    2.15572125E-05   -1.67695870E+01   -6.46373597E+01   -1.67695160E+01   
                   2.00000000E+01    1.50000000E+01    2.79113470E-02    1.34421271E-01    2.33343200E-04    1.07563177E-04   -9.89539300E+00   -6.44513918E+01   -9.89537779E+00   
                   2.50000000E+01    1.50000000E+01    3.06479198E-02    2.30640236E-01    1.67105547E-04    1.50400571E-04   -5.31335542E+00   -6.56113265E+01   -5.31335137E+00   
                   3.00000000E+01    1.50000000E+01   -3.91509332E-03    3.24936841E-01    7.98617759E-05    1.34920307E-04   -2.41146423E+00   -6.87420089E+01   -2.41146321E+00   
                   3.50000000E+01    1.50000000E+01   -7.37888319E-02    3.84455671E-01    1.54765693E-06    6.46167278E-05   -7.94041848E-01   -7.64386838E+01   -7.94041730E-01   
                   4.00000000E+01    1.50000000E+01   -1.59537058E-01    3.82077720E-01   -4.60282719E-05   -4.19281005E-05   -3.07067229E-01   -7.67636003E+01   -3.07067131E-01   
                   4.50000000E+01    1.50000000E+01   -2.31731027E-01    3.06152258E-01   -5.45870428E-05   -1.59004810E-04   -9.62260038E-01   -6.81360026E+01   -9.62259206E-01   
                   5.00000000E+01    1.50000000E+01   -2.62030932E-01    1.63407854E-01   -2.91668111E-05   -2.62305820E-04   -2.85430491E+00   -6.42185479E+01   -2.85430173E+00   
                   5.50000000E+01    1.50000000E+01   -2.32814339E-01   -2.50045515E-02    1.62484406E-05   -3.34917035E-04   -5.25806997E+00   -6.21391191E+01   -5.25806106E+00   
                   6.00000000E+01    1.50000000E+01   -1.41956334E-01   -2.31429386E-01    6.46566544E-05   -3.69482222E-04   -3.97274120E+00   -6.11652070E+01   -3.97273291E+00   
                   6.50000000E+01    1.50000000E+01   -2.12775400E-03   -4.29785970E-01    1.01168825E-04   -3.67029000E-04    1.70773986E-02   -6.10360288E+01    1.70808064E-02   
                   7.00000000E+01    1.50000000E+01    1.63806199E-01   -6.00990480E-01    1.16068529E-04   -3.33941987E-04    3.24049008E+00   -6.16793504E+01    3.24049148E+00   
                   7.50000000E+01    1.50000000E+01    3.28854824E-01   -7.34707524E-01    1.05685493E-04   -2.78657323E-04    5.46727848E+00   -6.31629989E+01    5.46727907E+00   
                   8.00000000E+01    1.50000000E+01    4.67402914E-01   -8.28001043E-01    7.17113286E-05   -2.09155104E-04    6.91385659E+00   -6.57560180E+01    6.91385682E+00   
                   8.50000000E+01    1.50000000E+01    5.59110135E-01   -8.82277544E-01    1.97882286E-05   -1.31678077E-04    7.73024466E+00   -7.01608174E+01    7.73024473E+00   
                   9.00000000E+01    1.50000000E+01    5.91128289E-01   -8.99995831E-01   -4.19873335E-05   -5.06064372E-05    7.99435344E+00   -7.62892694E+01    7.99435345E+00   
                   9.50000000E+01    1.50000000E+01    5.59088755E-01   -8.82264594E-01   -1.04350123E-04    3.08392714E-05    7.73005853E+00   -7.19145534E+01    7.73005858E+00   
                   1.00000000E+02    1.50000000E+01    4.67362390E-01   -8.27973651E-01   -1.57960238E-04    1.09471823E-04    6.91345669E+00   -6.69736319E+01    6.91345687E+00   
                   1.05000000E+02    1.50000000E+01    3.28799679E-01   -7.34663214E-01   -1.94504136E-04    1.80995848E-04    5.46659895E+00   -6.41605585E+01    5.46659942E+00   
                   1.10000000E+02    1.50000000E+01    1.63743221E-01   -6.00926739E-01   -2.08003146E-04    2.39264715E-04    3.23940159E+00   -6.26258552E+01    3.23940271E+00   
                   1.15000000E+02    1.50000000E+01   -2.18981542E-03   -4.29701488E-01   -1.96352628E-04    2.76355179E-04    1.53762157E-02   -6.20438704E+01    1.53789188E-02   
                   1.20000000E+02    1.50000000E+01   -1.42007550E-01   -2.31325323E-01   -1.62794839E-04    2.83809035E-04   -3.97472201E+00   -6.23522181E+01   -3.97471570E+00   
                   1.25000000E+02    1.50000000E+01   -2.32844969E-01   -2.48854651E-02   -1.16670558E-04    2.55131889E-04   -5.25741083E+00   -6.36880891E+01   -5.25740460E+00   
                   1.30000000E+02    1.50000000E+01   -2.62033231E-01    1.63533819E-01   -7.25935654E-05    1.89127513E-04   -2.85237494E+00   -6.65161016E+01   -2.85237308E+00   
                   1.35000000E+02    1.50000000E+01   -2.31701128E-01    3.06274204E-01   -4.73933370E-05    9.29741108E-05   -9.60468554E-01   -7.22776698E+01   -9.60468233E-01   
                   1.40000000E+02    1.50000000E+01   -1.59476351E-01    3.82183900E-01   -5.49333239E-05   -1.65720614E-05   -3.05502380E-01   -7.74730754E+01   -3.05502296E-01   
                   1.45000000E+02    1.50000000E+01   -7.37042408E-02    3.84536081E-01   -1.00111255E-04   -1.15373858E-04   -7.92643333E-01   -6.89682953E+01   -7.92642672E-01   
                   1.50000000E+02    1.50000000E+01   -3.81792207E-03    3.24985832E-01   -1.74461608E-04   -1.78008476E-04   -2.41018583E+00   -6.47154887E+01   -2.41018328E+00   
                   1.55000000E+02    1.50000000E+01    3.07444910E-02    2.30658273E-01   -2.56028132E-04   -1.86416059E-04   -5.31221242E+00   -6.26350059E+01   -5.31220438E+00   
                   1.60000000E+02    1.50000000E+01    2.79955021E-02    1.34415134E-01   -3.14967639E-04   -1.37888741E-04   -9.89468913E+00   -6.19212406E+01   -9.89466190E+00   
                   1.65000000E+02    1.50000000E+01    3.05960376E-03    6.21282201E-02   -3.23836633E-04   -4.84689054E-05   -1.67717756E+01   -6.23453400E+01   -1.67716553E+01   
                   1.70000000E+02    1.50000000E+01   -2.04477973E-02    2.31114102E-02   -2.68805068E-04    5.08801468E-05   -2.28605653E+01   -6.39064485E+01   -2.28602240E+01   
                   1.75000000E+02    1.50000000E+01   -2.31601984E-02    8.81969895E-03   -1.56744214E-04    1.24859006E-04   -2.47651037E+01   -6.66102968E+01   -2.47648198E+01   
                   1.80000000E+02    1.50000000E+01    4.31305636E-05    5.76941660E-04   -1.43655226E-05    1.47219675E-04   -5.74012321E+01   -6.92476004E+01   -5.71262369E+01   
                   0.00000000E+00    2.00000000E+01    1.96259079E-05    5.48049222E-04   -4.18164953E-05   -2.29467436E-04   -5.78661166E+01   -6.52917715E+01   -5.71439916E+01   
                   5.00000000E+00    2.00000000E+01   -2.34986361E-02    8.82482599E-03    1.38223498E-04   -1.97878304E-04   -2.46542308E+01   -6.49942527E+01   -2.46538293E+01   
                   1.00000000E+01    2.00000000E+01   -2.18548000E-02    2.24566341E-02    2.78936128E-04   -1.03104788E-04   -2.27272565E+01   -6.31817847E+01   -2.27268654E+01   
                   1.50000000E+01    2.00000000E+01    7.33524819E-04    5.93081086E-02    3.48197500E-04    2.31245619E-05   -1.71851280E+01   -6.17924480E+01   -1.71849776E+01   
                   2.00000000E+01    2.00000000E+01    2.66219367E-02    1.28416331E-01    3.37088139E-04    1.38302573E-04   -1.02929202E+01   -6.14175317E+01   -1.02928867E+01   
                   2.50000000E+01    2.00000000E+01    3.34201043E-02    2.22681877E-01    2.61132389E-04    2.04440552E-04   -5.59764110E+00   -6.22346971E+01   -5.59763168E+00   
                   3.00000000E+01    2.00000000E+01    5.44170634E-03    3.19401830E-01    1.52589546E-04    2.00463364E-04   -2.56006529E+00   -6.46224483E+01   -2.56006259E+00   
                   3.50000000E+01    2.00000000E+01   -5.80425314E-02    3.88282469E-01    4.78189414E-05    1.27250578E-04   -7.69139647E-01   -6.99812043E+01   -7.69139126E-01   
                   4.00000000E+01    2.00000000E+01   -1.41622443E-01    4.02744024E-01   -2.47900989E-05    4.52476897E-06   -4.11680539E-02   -8.46201823E+01   -4.11680387E-02   
                   4.50000000E+01    2.00000000E+01   -2.19611410E-01    3.49172913E-01   -5.20179850E-05   -1.37808493E-04   -3.39731375E-01   -6.92840665E+01   -3.39730821E-01   
                   5.00000000E+01    2.00000000E+01   -2.65638428E-01    2.30503158E-01   -3.66305940E-05   -2.69653552E-04   -1.72453543E+00   -6.39525394E+01   -1.72453283E+00   
                   5.50000000E+01    2.00000000E+01   -2.61579393E-01    6.36582509E-02    6.93363505E-06   -3.68353050E-04   -4.04612248E+00   -6.13212498E+01   -4.04611435E+00   
                   6.00000000E+01    2.00000000E+01   -2.02616105E-01   -1.26948511E-01    5.92273317E-05   -4.22126333E-04   -5.07645179E+00   -6.00545599E+01   -5.07643799E+00   
                   6.50000000E+01    2.00000000E+01   -9.74858010E-02   -3.16630281E-01    1.02050296E-04   -4.29521313E-04   -2.24370332E+00   -5.97498925E+01   -2.24369560E+00   