##File Type: Far field
##File Format: 5
##Source: Yagi_6_element_V0_0
##Date: 2018-07-31 16:04:43
** File exported by POSTFEKO version 2018-319328 (x64)

#Configuration Name: StandardConfiguration1
#Request Name: FarField1
#Frequency: 5.80000000E+09
#Coordinate System: Spherical
#No. of Theta Samples: 37
#No. of Phi Samples: 73
#Result Type: Gain
#No. of Header Lines: 1
#                 "Theta"           "Phi"             "Re(Etheta)"      "Im(Etheta)"      "Re(Ephi)"        "Im(Ephi)"        "Gain(Theta)"     "Gain(Phi)"       "Gain(Total)"     
                   0.00000000E+00    0.00000000E+00   -1.55706915E-05    3.31017920E-05    1.07768851E-04    6.38213074E-04   -8.13754828E+01   -5.64191969E+01   -5.64053465E+01   
                   5.00000000E+00    0.00000000E+00    1.71589078E-02    1.29191862E-02    1.07900467E-04    6.36904857E-04   -2.60004623E+01   -5.64362291E+01   -2.59965357E+01   
                   1.00000000E+01    0.00000000E+00    1.86262916E-02    2.76571692E-02    1.08022008E-04    6.32970268E-04   -2.21801198E+01   -5.64882669E+01   -2.21785096E+01   
                   1.50000000E+01    0.00000000E+00   -6.14126597E-03    4.51768685E-02    1.08059736E-04    6.26223094E-04   -1.94627679E+01   -5.65786019E+01   -1.94619243E+01   
                   2.00000000E+01    0.00000000E+00   -5.92663050E-02    6.49841857E-02    1.07896280E-04    6.16368584E-04   -1.37557623E+01   -5.67127194E+01   -1.37555425E+01   
                   2.50000000E+01    0.00000000E+00   -1.34367603E-01    8.53185962E-02    1.07376290E-04    6.03025959E-04   -8.60358893E+00   -5.68983314E+01   -8.60352462E+00   
                   3.00000000E+01    0.00000000E+00   -2.19330161E-01    1.03852527E-01    1.06314625E-04    5.85758652E-04   -4.94011789E+00   -5.71454789E+01   -4.94009175E+00   
                   3.50000000E+01    0.00000000E+00   -3.00587062E-01    1.18578498E-01    1.04507137E-04    5.64110895E-04   -2.45304797E+00   -5.74667679E+01   -2.45303428E+00   
                   4.00000000E+01    0.00000000E+00   -3.67157896E-01    1.28485202E-01    1.01743952E-04    5.37648730E-04   -8.41839134E-01   -5.78778332E+01   -8.41830540E-01   
                   4.50000000E+01    0.00000000E+00   -4.13092157E-01    1.33774794E-01    9.78248277E-05    5.06003011E-04    1.13441942E-01   -5.83981884E+01    1.13448060E-01   
                   5.00000000E+01    0.00000000E+00   -4.37849258E-01    1.35613224E-01    9.25758260E-05    4.68911535E-04    5.83708763E-01   -5.90527326E+01    5.83713485E-01   
                   5.50000000E+01    0.00000000E+00   -4.45016887E-01    1.35599780E-01    8.58661339E-05    4.26257144E-04    7.12508907E-01   -5.98744285E+01    7.12512701E-01   
                   6.00000000E+01    0.00000000E+00   -4.40252197E-01    1.35210180E-01    7.76235691E-05    3.78098651E-04    6.24872172E-01   -6.09092156E+01    6.24875222E-01   
                   6.50000000E+01    0.00000000E+00   -4.29330695E-01    1.35411842E-01    6.78471044E-05    3.24691711E-04    4.27094257E-01   -6.22255824E+01    4.27096615E-01   
                   7.00000000E+01    0.00000000E+00   -4.16857871E-01    1.36531734E-01    5.66147747E-05    2.66497381E-04    2.01695858E-01   -6.39350465E+01    2.01697534E-01   
                   7.50000000E+01    0.00000000E+00   -4.05785010E-01    1.38347031E-01    4.40855995E-05    2.04177019E-04    2.87544813E-03   -6.62425813E+01    2.87647908E-03   
                   8.00000000E+01    0.00000000E+00   -3.97563702E-01    1.40308234E-01    3.04947032E-05    1.38573286E-04   -1.42679764E-01   -6.96016388E+01   -1.42679272E-01   
                   8.50000000E+01    0.00000000E+00   -3.92642005E-01    1.41797152E-01    1.61415618E-05    7.06781904E-05   -2.28281718E-01   -7.54340944E+01   -2.28281587E-01   
                   9.00000000E+01    0.00000000E+00   -3.91016764E-01    1.42347198E-01    1.37216477E-06    1.59026522E-06   -2.56215740E-01   -1.06194474E+02   -2.56215740E-01   
                   9.50000000E+01    0.00000000E+00   -3.92638654E-01    1.41786018E-01   -1.34433045E-05   -6.75360802E-05   -2.28425981E-01   -7.58811390E+01   -2.28425863E-01   
                   1.00000000E+02    0.00000000E+00   -3.97558643E-01    1.40284351E-01   -2.79350498E-05   -1.35545315E-04   -1.42941809E-01   -6.98182668E+01   -1.42941341E-01   
                   1.05000000E+02    0.00000000E+00   -4.05781696E-01    1.38307484E-01   -4.17579740E-05   -2.01335558E-04    2.55338916E-03   -6.63792895E+01    2.55438824E-03   
                   1.10000000E+02    0.00000000E+00   -4.16861753E-01    1.36473012E-01   -5.46132477E-05   -2.63909281E-04    2.01407066E-01   -6.40294089E+01    2.01408706E-01   
                   1.15000000E+02    0.00000000E+00   -4.29349124E-01    1.35330990E-01   -6.62650687E-05   -3.22416228E-04    4.26964286E-01   -6.22925922E+01    4.26966607E-01   
                   1.20000000E+02    0.00000000E+00   -4.40293707E-01    1.35106368E-01   -7.65512201E-05   -3.76185500E-04    6.25045985E-01   -6.09563557E+01    6.25049002E-01   
                   1.25000000E+02    0.00000000E+00   -4.45089578E-01    1.35475977E-01   -8.53868560E-05   -4.24744746E-04    7.13133799E-01   -5.99059922E+01    7.13137565E-01   
                   1.30000000E+02    0.00000000E+00   -4.37958298E-01    1.35477409E-01   -9.27617700E-05   -4.67825523E-04    5.84921535E-01   -5.90714574E+01    5.84926235E-01   
                   1.35000000E+02    0.00000000E+00   -4.13236862E-01    1.33639892E-01   -9.87321048E-05   -5.05355063E-04    1.15364875E-01   -5.84059944E+01    1.15370980E-01   
                   1.40000000E+02    0.00000000E+00   -3.67329407E-01    1.28367116E-01   -1.03407946E-04   -5.37435802E-04   -8.39094917E-01   -5.78762024E+01   -8.39086325E-01   
                   1.45000000E+02    0.00000000E+00   -3.00767917E-01    1.18492162E-01   -1.06938465E-04   -5.64314916E-04   -2.44937722E+00   -5.74569580E+01   -2.44936351E+00   
                   1.50000000E+02    0.00000000E+00   -2.19496842E-01    1.03806890E-01   -1.09496227E-04   -5.86346709E-04   -4.93542526E+00   -5.71286517E+01   -4.93539906E+00   
                   1.55000000E+02    0.00000000E+00   -1.34496228E-01    8.53123901E-02   -1.11262049E-04   -6.03951004E-04   -8.59784580E+00   -5.68756315E+01   -8.59778123E+00   
                   1.60000000E+02    0.00000000E+00   -5.93402072E-02    6.50046093E-02   -1.12411408E-04   -6.17570646E-04   -1.37493554E+01   -5.66853211E+01   -1.37491345E+01   
                   1.65000000E+02    0.00000000E+00   -6.15789159E-03    4.52025767E-02   -1.13102982E-04   -6.27630970E-04   -1.94574894E+01   -5.65477324E+01   -1.94566408E+01   
                   1.70000000E+02    0.00000000E+00    1.86521502E-02    2.76651627E-02   -1.13469591E-04   -6.34503661E-04   -2.21746307E+01   -5.64552129E+01   -2.21730102E+01   
                   1.75000000E+02    0.00000000E+00    1.71976150E-02    1.28932042E-02   -1.13611462E-04   -6.38476886E-04   -2.59942612E+01   -5.64023294E+01   -2.59903095E+01   
                   1.80000000E+02    0.00000000E+00   -3.38864457E-07   -3.00008020E-05   -1.13591666E-04   -6.39733081E-04   -8.30974008E+01   -5.63858261E+01   -5.63765756E+01   
                   0.00000000E+00    5.00000000E+00   -6.11876605E-06    8.85997642E-05    1.08715833E-04    6.32899469E-04   -7.36712968E+01   -5.64876270E+01   -5.64053465E+01   
                   5.00000000E+00    5.00000000E+00    1.76090416E-02    1.10879034E-02   -2.84918212E-03    2.48168444E-03   -2.62755331E+01   -4.10943653E+01   -2.61346567E+01   
                   1.00000000E+01    5.00000000E+00    2.11755103E-02    2.09057392E-02   -5.04519144E-03    4.23197514E-03   -2.31689611E+01   -3.62693618E+01   -2.29613165E+01   
                   1.50000000E+01    5.00000000E+00    6.07684658E-04    3.30519546E-02   -6.02714552E-03    5.58808732E-03   -2.22552013E+01   -3.43441527E+01   -2.19947064E+01   
                   2.00000000E+01    5.00000000E+00   -4.58480808E-02    4.98417036E-02   -5.64788951E-03    6.32177862E-03   -1.60260425E+01   -3.40755260E+01   -1.59585189E+01   
                   2.50000000E+01    5.00000000E+00   -1.11790363E-01    7.12085431E-02   -4.07529302E-03    6.33500360E-03   -1.01934527E+01   -3.51016971E+01   -1.01794484E+01   
                   3.00000000E+01    5.00000000E+00   -1.85582558E-01    9.46541437E-02   -1.71388138E-03    5.68114310E-03   -6.26568551E+00   -3.71736094E+01   -6.26216329E+00   
                   3.50000000E+01    5.00000000E+00   -2.54556091E-01    1.16284890E-01    9.26384798E-04    4.53975066E-03   -3.70183103E+00   -3.93227924E+01   -3.70064081E+00   
                   4.00000000E+01    5.00000000E+00   -3.08775846E-01    1.32360062E-01    3.36608174E-03    3.15794738E-03   -2.11514589E+00   -3.93561763E+01   -2.11432622E+00   
                   4.50000000E+01    5.00000000E+00   -3.43160249E-01    1.40610612E-01    5.25605837E-03    1.78224488E-03   -1.25662818E+00   -3.77547459E+01   -1.25565560E+00   
                   5.00000000E+01    5.00000000E+00   -3.57647299E-01    1.40814855E-01    6.42049745E-03    6.04004769E-04   -9.45619003E-01   -3.64509726E+01   -9.44396675E-01   
                   5.50000000E+01    5.00000000E+00   -3.55891898E-01    1.34546018E-01    6.84592474E-03   -2.67852609E-04   -1.03407613E+00   -3.59253265E+01   -1.03266818E+00   
                   6.00000000E+01    5.00000000E+00   -3.43354167E-01    1.24376470E-01    6.63479339E-03   -8.05867043E-04   -1.39030446E+00   -3.61404618E+01   -1.38885002E+00   
                   6.50000000E+01    5.00000000E+00   -3.25564589E-01    1.12970004E-01    5.94714533E-03   -1.04334902E-03   -1.89411049E+00   -3.70227892E+01   -1.89277743E+00   
                   7.00000000E+01    5.00000000E+00   -3.07013229E-01    1.02413091E-01    4.94935752E-03   -1.04614211E-03   -2.43925573E+00   -3.85598154E+01   -2.43819482E+00   
                   7.50000000E+01    5.00000000E+00   -2.90739673E-01    9.39378717E-02    3.78008318E-03   -8.87180209E-04   -2.93928834E+00   -4.08577169E+01   -2.93858703E+00   
                   8.00000000E+01    5.00000000E+00   -2.78452377E-01    8.79999582E-02    2.53505597E-03   -6.29628148E-04   -3.33215451E+00   -4.43008964E+01   -3.33180706E+00   
                   8.50000000E+01    5.00000000E+00   -2.70917944E-01    8.45662635E-02    1.26716817E-03   -3.19866853E-04   -3.58006528E+00   -5.03156573E+01   -3.57997319E+00   
                   9.00000000E+01    5.00000000E+00   -2.68388616E-01    8.34484133E-02   -3.49273264E-06    1.13438933E-05   -3.66455632E+00   -9.11520232E+01   -3.66455631E+00   
                   9.50000000E+01    5.00000000E+00   -2.70912157E-01    8.45528564E-02   -1.27430890E-03    3.42330129E-04   -3.58035660E+00   -5.02324920E+01   -3.58026272E+00   
                   1.00000000E+02    5.00000000E+00   -2.78443157E-01    8.79723285E-02   -2.54267631E-03    6.51415775E-04   -3.33266362E+00   -4.42587065E+01   -3.33231274E+00   
                   1.05000000E+02    5.00000000E+00   -2.90731721E-01    9.38946751E-02   -3.78854164E-03    9.07840464E-04   -2.93988092E+00   -4.08286892E+01   -2.93917482E+00   
                   1.10000000E+02    5.00000000E+00   -3.07013436E-01    1.02353040E-01   -4.95904588E-03    1.06524030E-03   -2.43976029E+00   -3.85367421E+01   -2.43869362E+00   
                   1.15000000E+02    5.00000000E+00   -3.25581473E-01    1.12892736E-01   -5.95845460E-03    1.06050725E-03   -1.89434667E+00   -3.70024970E+01   -1.89300729E+00   
                   1.20000000E+02    5.00000000E+00   -3.43396658E-01    1.24283587E-01   -6.64804034E-03    8.20824209E-04   -1.39010631E+00   -3.61210328E+01   -1.38864541E+00   
                   1.25000000E+02    5.00000000E+00   -3.55967377E-01    1.34442035E-01   -6.86124396E-03    2.80531443E-04   -1.03330340E+00   -3.59053009E+01   -1.03188919E+00   
                   1.30000000E+02    5.00000000E+00   -3.57759076E-01    1.40707638E-01   -6.43772012E-03   -5.93449223E-04   -9.44155865E-01   -3.64292210E+01   -9.42927814E-01   
                   1.35000000E+02    5.00000000E+00   -3.43305129E-01    1.40510829E-01   -5.27461671E-03   -1.77342788E-03   -1.25437397E+00   -3.77316730E+01   -1.25339672E+00   
                   1.40000000E+02    5.00000000E+00   -3.08942706E-01    1.32279334E-01   -3.38498932E-03   -3.15033509E-03   -2.11200285E+00   -3.93399737E+01   -2.11118071E+00   
                   1.45000000E+02    5.00000000E+00   -2.54726506E-01    1.16232771E-01   -9.44337654E-04   -4.53282186E-03   -3.69769246E+00   -3.93287193E+01   -3.69650499E+00   
                   1.50000000E+02    5.00000000E+00   -1.85734048E-01    9.46346816E-02    1.69826597E-03   -5.67459653E-03   -6.26042851E+00   -3.71893783E+01   -6.25692330E+00   
                   1.55000000E+02    5.00000000E+00   -1.11901961E-01    7.12177342E-02    4.06313214E-03   -6.32893706E-03   -1.01869627E+01   -3.51151736E+01   -1.01730225E+01   
                   1.60000000E+02    5.00000000E+00   -4.59068529E-02    4.98672041E-02    5.63967051E-03   -6.31675100E-03   -1.60185347E+01   -3.40849828E+01   -1.59512723E+01   
                   1.65000000E+02    5.00000000E+00    6.01355495E-04    3.30758229E-02    6.02246357E-03   -5.58500233E-03   -2.22489636E+01   -3.43499995E+01   -2.19891713E+01   
                   1.70000000E+02    5.00000000E+00    2.12060734E-02    2.09097392E-02    5.04270412E-03   -4.23179562E-03   -2.31617934E+01   -3.62720278E+01   -2.29546074E+01   
                   1.75000000E+02    5.00000000E+00    1.76486383E-02    1.10596073E-02    2.84684079E-03   -2.48506991E-03   -2.62678233E+01   -4.10933072E+01   -2.61271590E+01   
                   1.80000000E+02    5.00000000E+00    9.56259091E-06    2.58697719E-05   -1.13188949E-04   -6.39913446E-04   -8.38285451E+01   -5.63843915E+01   -5.63765756E+01   
                   0.00000000E+00    1.00000000E+01    3.37972688E-06    1.43423439E-04    1.08835422E-04    6.22769117E-04   -6.95057986E+01   -5.66234171E+01   -5.64053465E+01   
                   5.00000000E+00    1.00000000E+01    1.76001761E-02    9.65327611E-03   -5.60556316E-03    4.44270875E-03   -2.65880796E+01   -3.55513068E+01   -2.60689829E+01   
                   1.00000000E+01    1.00000000E+01    2.31909272E-02    1.51876115E-02   -9.61642626E-03    8.33217905E-03   -2.37842714E+01   -3.05481205E+01   -2.29539921E+01   
                   1.50000000E+01    1.00000000E+01    7.48768138E-03    2.29091967E-02   -1.11184690E-02    1.14869199E-02   -2.49996233E+01   -2.85655188E+01   -2.34161274E+01   
                   2.00000000E+01    1.00000000E+01   -3.05355724E-02    3.80432885E-02   -9.95918536E-03    1.32055052E-02   -1.88753663E+01   -2.82699157E+01   -1.84027752E+01   
                   2.50000000E+01    1.00000000E+01   -8.42187737E-02    6.24306799E-02   -6.61270080E-03    1.31108762E-02   -1.22304804E+01   -2.93036635E+01   -1.21461003E+01   
                   3.00000000E+01    1.00000000E+01   -1.42446035E-01    9.37714003E-02   -1.97407526E-03    1.12561612E-02   -8.00407847E+00   -3.14812422E+01   -7.98462062E+00   
                   3.50000000E+01    1.00000000E+01   -1.93848984E-01    1.26765342E-01    2.93290853E-03    8.08354879E-03   -5.34516738E+00   -3.39514821E+01   -5.33918528E+00   
                   4.00000000E+01    1.00000000E+01   -2.30224917E-01    1.55395115E-01    7.22602236E-03    4.26700059E-03   -3.76718782E+00   -3.41634858E+01   -3.76322544E+00   
                   4.50000000E+01    1.00000000E+01   -2.48130564E-01    1.75168950E-01    1.03341140E-02    5.10301398E-04   -2.99081006E+00   -3.23445702E+01   -2.98577324E+00   
                   5.00000000E+01    1.00000000E+01   -2.48600337E-01    1.84383935E-01    1.20402893E-02   -2.62417332E-03   -2.82697682E+00   -3.08263254E+01   -2.82009814E+00   
                   5.50000000E+01    1.00000000E+01   -2.35662747E-01    1.84114515E-01    1.24222801E-02   -4.80823319E-03   -3.12553288E+00   -3.01502890E+01   -3.11692535E+00   
                   6.00000000E+01    1.00000000E+01   -2.14542519E-01    1.77252257E-01    1.17395816E-02   -5.95420726E-03   -3.75057425E+00   -3.02533693E+01   -3.74086872E+00   
                   6.50000000E+01    1.00000000E+01   -1.90220282E-01    1.67222227E-01    1.03167666E-02   -6.15851424E-03   -4.56884665E+00   -3.10460540E+01   -4.55908382E+00   
                   7.00000000E+01    1.00000000E+01   -1.66631737E-01    1.56936896E-01    8.45519589E-03   -5.61913632E-03   -5.44768674E+00   -3.25094988E+01   -5.43915227E+00   
                   7.50000000E+01    1.00000000E+01   -1.46457686E-01    1.48273207E-01    6.38421605E-03   -4.55921070E-03   -6.26223407E+00   -3.47487114E+01   -6.25608472E+00   
                   8.00000000E+01    1.00000000E+01   -1.31291570E-01    1.42068648E-01    4.24731383E-03   -3.17535975E-03   -6.90946089E+00   -3.81500598E+01   -6.90619831E+00   
                   8.50000000E+01    1.00000000E+01   -1.21956870E-01    1.38451560E-01    2.11178870E-03   -1.61543189E-03   -7.32042156E+00   -4.41468654E+01   -7.31951979E+00   
                   9.00000000E+01    1.00000000E+01   -1.18811400E-01    1.37271738E-01   -9.33534195E-06    1.89009787E-05   -7.46078239E+00   -8.61629146E+01   -7.46078234E+00   
                   9.50000000E+01    1.00000000E+01   -1.21951739E-01    1.38437384E-01   -2.13074330E-03    1.65301509E-03   -7.32108202E+00   -4.40237594E+01   -7.32015419E+00   
                   1.00000000E+02    1.00000000E+01   -1.31283890E-01    1.42040355E-01   -4.26714631E-03    3.21227897E-03   -6.91062797E+00   -3.80880094E+01   -6.90731757E+00   
                   1.05000000E+02    1.00000000E+01   -1.46452481E-01    1.48231113E-01   -6.40558161E-03    4.59500351E-03   -6.26363469E+00   -3.47065129E+01   -6.25742334E+00   
                   1.10000000E+02    1.00000000E+01   -1.66636075E-01    1.56881936E-01   -8.47879687E-03    5.65333029E-03   -5.44899671E+00   -3.24765413E+01   -5.44039471E+00   
                   1.15000000E+02    1.00000000E+01   -1.90242430E-01    1.67156413E-01   -1.03432656E-02    6.19065816E-03   -4.56976615E+00   -3.10177351E+01   -4.55993746E+00   
                   1.20000000E+02    1.00000000E+01   -2.14590510E-01    1.77179102E-01   -1.17694355E-02    5.98392648E-03   -3.75087336E+00   -3.02269658E+01   -3.74110804E+00   
                   1.25000000E+02    1.00000000E+01   -2.35742370E-01    1.84039249E-01   -1.24555172E-02    4.83529814E-03   -3.12505579E+00   -3.01237429E+01   -3.11639650E+00   
                   1.30000000E+02    1.00000000E+01   -2.48712873E-01    1.84313306E-01   -1.20762856E-02    2.64855660E-03   -2.82562044E+00   -3.07979143E+01   -2.81869880E+00   
                   1.35000000E+02    1.00000000E+01   -2.48270909E-01    1.75110423E-01   -1.03714546E-02   -4.88414164E-04   -2.98849608E+00   -3.23141981E+01   -2.98342663E+00   
                   1.40000000E+02    1.00000000E+01   -2.30380920E-01    1.55355438E-01   -7.26254358E-03   -4.24727964E-03   -3.76383832E+00   -3.41412658E+01   -3.75985869E+00   
                   1.45000000E+02    1.00000000E+01   -1.94002733E-01    1.26748650E-01   -2.96598283E-03   -8.06568068E-03   -5.34068480E+00   -3.39569743E+01   -5.33471641E+00   
                   1.50000000E+02    1.00000000E+01   -1.42577328E-01    9.37773723E-02    1.94701624E-03   -1.12400706E-02   -7.99832706E+00   -3.14968358E+01   -7.97896441E+00   
                   1.55000000E+02    1.00000000E+01   -8.43102017E-02    6.24534598E-02    6.59350607E-03   -1.30969300E-02   -1.22232735E+01   -2.93161488E+01   -1.21392715E+01   
                   1.60000000E+02    1.00000000E+01   -3.05778830E-02    3.80718875E-02    9.94836666E-03   -1.31945931E-02   -1.88666834E+01   -2.82779154E+01   -1.83958094E+01   
                   1.65000000E+02    1.00000000E+01    7.49171680E-03    2.29296986E-02    1.11148318E-02   -1.14803278E-02   -2.49921517E+01   -2.85694676E+01   -2.34121419E+01   
                   1.70000000E+02    1.00000000E+01    2.32256948E-02    1.51867935E-02    9.61710889E-03   -8.33124919E-03   -2.37753011E+01   -3.05481840E+01   -2.29465924E+01   
                   1.75000000E+02    1.00000000E+01    1.76401635E-02    9.62253248E-03    5.60653205E-03   -4.44838839E-03   -2.65792878E+01   -3.55461010E+01   -2.60605949E+01   
                   1.80000000E+02    1.00000000E+01    1.93912690E-05    8.15434615E-05   -1.11924796E-04   -6.35223682E-04   -7.41739279E+01   -5.64493000E+01   -5.63765756E+01   
                   0.00000000E+00    1.50000000E+01    1.28524980E-05    1.97155574E-04    1.08126708E-04    6.07899116E-04   -6.67260139E+01   -5.68287104E+01   -5.64053465E+01   
                   5.00000000E+00    1.50000000E+01    1.71752119E-02    8.65760264E-03   -8.08151975E-03    6.44517076E-03   -2.69592758E+01   -3.23528186E+01   -2.58573118E+01   
                   1.00000000E+01    1.50000000E+01    2.47490757E-02    1.06628827E-02   -1.34715090E-02    1.27483935E-02   -2.40299670E+01   -2.72749887E+01   -2.23458940E+01   
                   1.50000000E+01    1.50000000E+01    1.44524868E-02    1.50178241E-02   -1.50088646E-02    1.80252365E-02   -2.62616198E+01   -2.52356023E+01   -2.27080818E+01   
                   2.00000000E+01    1.50000000E+01   -1.38860473E-02    2.98752156E-02   -1.26946273E-02    2.09078327E-02   -2.22849107E+01   -2.48714872E+01   -2.03781150E+01   
                   2.50000000E+01    1.50000000E+01   -5.33581560E-02    5.91548776E-02   -7.46959064E-03    2.06097464E-02   -1.46153429E+01   -2.58231682E+01   -1.42983457E+01   
                   3.00000000E+01    1.50000000E+01   -9.35924724E-02    1.01146020E-01   -8.19491037E-04    1.71584746E-02   -9.85534685E+00   -2.79411435E+01   -9.78838121E+00   
                   3.50000000E+01    1.50000000E+01   -1.24984501E-01    1.49695890E-01    5.71966467E-03    1.13337553E-02   -6.83935058E+00   -3.05678085E+01   -6.82098436E+00   
                   4.00000000E+01    1.50000000E+01   -1.41697838E-01    1.97053225E-01    1.09681460E-02    4.37109679E-03   -4.93885085E+00   -3.11977752E+01   -4.92858539E+00   
                   4.50000000E+01    1.50000000E+01   -1.42576775E-01    2.36813667E-01    1.43056292E-02   -2.42609271E-03   -3.80917549E+00   -2.94073288E+01   -3.79722539E+00   
                   5.00000000E+01    1.50000000E+01   -1.30234984E-01    2.65702860E-01    1.56590138E-02   -8.01542000E-03   -3.21759620E+00   -2.77346838E+01   -3.20227442E+00   
                   5.50000000E+01    1.50000000E+01   -1.09250754E-01    2.83767501E-01    1.53435980E-02   -1.17921632E-02   -2.98108628E+00   -2.69063129E+01   -2.96353198E+00   
                   6.00000000E+01    1.50000000E+01   -8.44277288E-02    2.93352181E-01    1.38553721E-02   -1.36000591E-02   -2.94721990E+00   -2.68779711E+01   -2.92968786E+00   
                   6.50000000E+01    1.50000000E+01   -5.96843688E-02    2.97628836E-01    1.16939646E-02   -1.36239593E-02   -2.99588739E+00   -2.75571861E+01   -2.98072052E+00   
                   7.00000000E+01    1.50000000E+01   -3.76644698E-02    2.99369687E-01    9.25476346E-03   -1.22353770E-02   -3.04825043E+00   -2.89233760E+01   -3.03703771E+00   
                   7.50000000E+01    1.50000000E+01   -1.98592507E-02    3.00316427E-01    6.79049972E-03   -9.85143626E-03   -3.07008056E+00   -3.10823442E+01   -3.06322229E+00   
                   8.00000000E+01    1.50000000E+01   -6.95408159E-03    3.01147601E-01    4.42106551E-03   -6.84081083E-03   -3.06270875E+00   -3.44226929E+01   -3.05953461E+00   
                   8.50000000E+01    1.50000000E+01    8.16224122E-04    3.01832106E-01    2.16631032E-03   -3.48393431E-03   -3.04527168E+00   -4.03795906E+01   -3.04446942E+00   
                   9.00000000E+01    1.50000000E+01    3.40698258E-03    3.02101197E-01   -1.66379590E-05    2.18378199E-05   -3.03701085E+00   -8.38685575E+01   -3.03701082E+00   
                   9.50000000E+01    1.50000000E+01    8.17717040E-04    3.01819570E-01   -2.19996740E-03    3.52765186E-03   -3.04563231E+00   -4.02641232E+01   -3.04480837E+00   
                   1.00000000E+02    1.50000000E+01   -6.95333663E-03    3.01123363E-01   -4.45589906E-03    6.88463186E-03   -3.06340800E+00   -3.43634831E+01   -3.06018978E+00   
                   1.05000000E+02    1.50000000E+01   -1.98635433E-02    3.00282215E-01   -6.82737835E-03    9.89535606E-03   -3.07105764E+00   -3.10409970E+01   -3.06413225E+00   
                   1.10000000E+02    1.50000000E+01   -3.76796698E-02    2.99328196E-01   -9.29459653E-03    1.22792832E-02   -3.04938090E+00   -2.88900087E+01   -3.03807887E+00   
                   1.15000000E+02    1.50000000E+01   -5.97170582E-02    2.97583729E-01   -1.17375644E-02    1.36675993E-02   -2.99696898E+00   -2.75274790E+01   -2.98169440E+00   
                   1.20000000E+02    1.50000000E+01   -8.44838575E-02    2.93307913E-01   -1.39032064E-02    1.36430268E-02   -2.94798848E+00   -2.68492802E+01   -2.93033736E+00   
                   1.25000000E+02    1.50000000E+01   -1.09333901E-01    2.83728936E-01   -1.53954736E-02    1.18339150E-02   -2.98126059E+00   -2.68764827E+01   -2.96358484E+00   
                   1.30000000E+02    1.50000000E+01   -1.30344541E-01    2.65674650E-01   -1.57137787E-02    8.05532421E-03   -3.21692378E+00   -2.77016965E+01   -3.20148778E+00   
                   1.35000000E+02    1.50000000E+01   -1.42706622E-01    2.36799472E-01   -1.43610243E-02    2.46349978E-03   -3.80745248E+00   -2.93709516E+01   -3.79540678E+00   
                   1.40000000E+02    1.50000000E+01   -1.41836185E-01    1.97054886E-01   -1.10209337E-02   -4.33679477E-03   -4.93591168E+00   -3.11710023E+01   -4.92558979E+00   
                   1.45000000E+02    1.50000000E+01   -1.25115401E-01    1.49712703E-01   -5.76610584E-03   -1.13031147E-02   -6.83503924E+00   -3.05721273E+01   -6.81670940E+00   
                   1.50000000E+02    1.50000000E+01   -9.36990506E-02    1.01174293E-01    7.82852593E-04   -1.71320638E-02   -9.84947762E+00   -2.79553596E+01   -9.78281860E+00   
                   1.55000000E+02    1.50000000E+01   -5.34269309E-02    5.91879819E-02    7.44501100E-03   -2.05882615E-02   -1.46076431E+01   -2.58344952E+01   -1.42919824E+01   
                   1.60000000E+02    1.50000000E+01   -1.39111499E-02    2.99043214E-02    1.26823776E-02   -2.08921953E-02   -2.22751674E+01   -2.48784941E+01   -2.03743165E+01   
                   1.65000000E+02    1.50000000E+01    1.44665831E-02    1.50333687E-02    1.50068454E-02   -1.80165791E-02   -2.62528831E+01   -2.52385448E+01   -2.27058674E+01   
                   1.70000000E+02    1.50000000E+01    2.47874009E-02    1.06565648E-02    1.34754304E-02   -1.27478797E-02   -2.40194318E+01   -2.72738201E+01   -2.23383674E+01   
                   1.75000000E+02    1.50000000E+01    1.72150816E-02    8.62438092E-03    8.08564919E-03   -6.45368065E-03   -2.69499296E+01   -3.23456495E+01   -2.58484534E+01   
                   1.80000000E+02    1.50000000E+01    2.90723676E-05    1.36596556E-04   -1.09808828E-04   -6.25699484E-04   -6.97394149E+01   -5.65815544E+01   -5.63765756E+01   
                   0.00000000E+00    2.00000000E+01    2.22274539E-05    2.49387237E-04    1.06595084E-04    5.88402636E-04   -6.46687643E+01   -5.71068778E+01   -5.64053465E+01   
                   5.00000000E+00    2.00000000E+01    1.63879518E-02    8.12551654E-03   -1.02110647E-02    8.40648373E-03   -2.73954958E+01   -3.02118497E+01   -2.55689674E+01   
                   1.00000000E+01    2.00000000E+01    2.59342352E-02    7.43642700E-03   -1.65188249E-02    1.72675306E-02   -2.40199844E+01   -2.50739530E+01   -2.15047741E+01   
                   1.50000000E+01    2.00000000E+01    2.14266697E-02    9.52697488E-03   -1.76155094E-02    2.48647717E-02   -2.52380480E+01   -2.29624982E+01   -2.09426089E+01   
                   2.00000000E+01    2.00000000E+01    3.40753555E-03    2.53777597E-02   -1.38059377E-02    2.90412141E-02   -2.44739445E+01   -2.24954234E+01   -2.03626754E+01   
                   2.50000000E+01    2.00000000E+01   -2.12555455E-02    6.10272396E-02   -6.65014444E-03    2.85321624E-02   -1.64328801E+01   -2.33041769E+01   -1.56211083E+01   
                   3.00000000E+01    2.00000000E+01   -4.33310044E-02    1.15598119E-01    1.68060350E-03    2.33424227E-02   -1.08106197E+01   -2.52552392E+01   -1.06572875E+01   
                   3.50000000E+01    2.00000000E+01   -5.54274362E-02    1.82477615E-01    9.14244500E-03    1.46468837E-02   -7.03314560E+00   -2.78967665E+01   -6.99769298E+00   
                   4.00000000E+01    2.00000000E+01   -5.45105349E-02    2.52560875E-01    1.43650560E-02    4.31796600E-03   -4.39555331E+00   -2.91187934E+01   -4.38094064E+00   
                   4.50000000E+01    2.00000000E+01   -4.20540635E-02    3.17711226E-01    1.68543030E-02   -5.68285313E-03   -2.52452849E+00   -2.76387642E+01   -2.51117199E+00   
                   5.00000000E+01    2.00000000E+01   -2.24170192E-02    3.72941807E-01    1.68712432E-02   -1.38088937E-02   -1.19212771E+00   -2.58707111E+01   -1.17736427E+00   
                   5.50000000E+01    2.00000000E+01   -6.52249802E-04    4.16812135E-01    1.51245766E-02   -1.91863272E-02   -2.41794395E-01   -2.48818294E+01   -2.26899555E-01   
                   6.00000000E+01    2.00000000E+01    1.92048521E-02    4.50463440E-01    1.24389783E-02   -2.16150463E-02    4.40465519E-01   -2.47031383E+01    4.53732143E-01   
                   6.50000000E+01    2.00000000E+01    3.49008832E-02    4.76141400E-01    9.51317464E-03   -2.13947965E-02    9.37378118E-01   -2.52509223E+01    9.47811677E-01   