##File Type: Far field
##File Format: 5
##Source: Yagi_6_element_V0_1_optimum
##Date: 2018-08-01 08:49:14
** File exported by POSTFEKO version 2018-319328 (x64)

#Configuration Name: StandardConfiguration1
#Request Name: Yagi_FarField
#Frequency: 5.80000000E+09
#Coordinate System: Spherical
#No. of Theta Samples: 37
#No. of Phi Samples: 73
#Result Type: Directivity
#No. of Header Lines: 1
#                 "Theta"           "Phi"             "Re(Etheta)"      "Im(Etheta)"      "Re(Ephi)"        "Im(Ephi)"        "Directivity(Theta)""Directivity(Phi)""Directivity(Total)"
                   0.00000000E+00    0.00000000E+00    6.26158149E-05    8.47524853E-05    6.56506322E-05   -3.99072492E-04   -7.14107851E+01   -5.97284654E+01   -5.94432242E+01   
                   5.00000000E+00    0.00000000E+00   -1.32020547E-02   -2.08592632E-02    6.57117728E-05   -3.99155427E-04   -2.40164250E+01   -5.97264949E+01   -2.40152590E+01   
                   1.00000000E+01    0.00000000E+00   -2.87746022E-02   -2.02100250E-02    6.57724976E-05   -3.99301837E-04   -2.09438015E+01   -5.97231818E+01   -2.09432263E+01   
                   1.50000000E+01    0.00000000E+00   -4.87797608E-02    1.59016556E-02    6.57842810E-05   -3.99245844E-04   -1.76620721E+01   -5.97243266E+01   -1.76618020E+01   
                   2.00000000E+01    0.00000000E+00   -7.48818245E-02    8.89029935E-02    6.56692072E-05   -3.98556153E-04   -1.05585871E+01   -5.97393493E+01   -1.05585347E+01   
                   2.50000000E+01    0.00000000E+00   -1.07860022E-01    1.87845994E-01    6.53235902E-05   -3.96654968E-04   -5.15190075E+00   -5.97809954E+01   -5.15188579E+00   
                   3.00000000E+01    0.00000000E+00   -1.47228563E-01    2.93918067E-01    6.46232749E-05   -3.92846122E-04   -1.52865808E+00   -5.98650628E+01   -1.52865171E+00   
                   3.50000000E+01    0.00000000E+00   -1.91137598E-01    3.87268748E-01    6.34307170E-05   -3.86353345E-04    8.41565013E-01   -6.00102665E+01    8.41568582E-01   
                   4.00000000E+01    0.00000000E+00   -2.36686866E-01    4.53292940E-01    6.16038208E-05   -3.76368883E-04    2.30916489E+00   -6.02383772E+01    2.30916731E+00   
                   4.50000000E+01    0.00000000E+00   -2.80581437E-01    4.86117399E-01    5.90063016E-05   -3.62111505E-04    3.11813111E+00   -6.05748118E+01    3.11813296E+00   
                   5.00000000E+01    0.00000000E+00   -3.19890872E-01    4.88542267E-01    5.55190819E-05   -3.42891325E-04    3.46211944E+00   -6.10499526E+01    3.46212098E+00   
                   5.50000000E+01    0.00000000E+00   -3.52637614E-01    4.69242112E-01    5.10519406E-05   -3.18177130E-04    3.50694304E+00   -6.17017000E+01    3.50694435E+00   
                   6.00000000E+01    0.00000000E+00   -3.78041542E-01    4.38895943E-01    4.55543897E-05   -2.87660296E-04    3.39203675E+00   -6.25803022E+01    3.39203785E+00   
                   6.50000000E+01    0.00000000E+00   -3.96409438E-01    4.06861576E-01    3.90245970E-05   -2.51308290E-04    3.22220552E+00   -6.37578538E+01    3.22220639E+00   
                   7.00000000E+01    0.00000000E+00   -4.08788109E-01    3.79319935E-01    3.15151704E-05   -2.09400616E-04    3.06201115E+00   -6.53486390E+01    3.06201177E+00   
                   7.50000000E+01    0.00000000E+00   -4.16545936E-01    3.58992960E-01    2.31348051E-05   -1.62540969E-04    2.94015175E+00   -6.75591129E+01    2.94015214E+00   
                   8.00000000E+01    0.00000000E+00   -4.21014792E-01    3.45976200E-01    1.40451656E-05   -1.11641538E-04    2.86140529E+00   -7.08407574E+01    2.86140547E+00   
                   8.50000000E+01    0.00000000E+00   -4.23253173E-01    3.39045984E-01    4.45290237E-06   -5.78784641E-05    2.81941103E+00   -7.65895014E+01    2.81941108E+00   
                   9.00000000E+01    0.00000000E+00   -4.23925479E-01    3.36902076E-01   -5.40269103E-06   -2.62112399E-06    2.80640230E+00   -9.62952914E+01    2.80640230E+00   
                   9.50000000E+01    0.00000000E+00   -4.23257243E-01    3.39013216E-01   -1.52652898E-05    5.26584960E-05    2.81913380E+00   -7.70856596E+01    2.81913384E+00   
                   1.00000000E+02    0.00000000E+00   -4.21025573E-01    3.45912619E-01   -2.48788677E-05    1.06487239E-04    2.86089465E+00   -7.10887082E+01    2.86089482E+00   
                   1.05000000E+02    0.00000000E+00   -4.16568316E-01    3.58902979E-01   -3.40049456E-05    1.57492317E-04    2.93949173E+00   -6.77223970E+01    2.93949211E+00   
                   1.10000000E+02    0.00000000E+00   -4.08828293E-01    3.79211203E-01   -4.24379745E-05    2.04492232E-04    3.06131813E+00   -6.54688088E+01    3.06131874E+00   
                   1.15000000E+02    0.00000000E+00   -3.96473277E-01    4.06745553E-01   -5.00173409E-05    2.46567934E-04    3.22161624E+00   -6.38516075E+01    3.22161709E+00   
                   1.20000000E+02    0.00000000E+00   -3.78132126E-01    4.38787634E-01   -5.66349588E-05    2.83107920E-04    3.39169293E+00   -6.26560190E+01    3.39169401E+00   
                   1.25000000E+02    0.00000000E+00   -3.52752509E-01    4.69158325E-01   -6.22380108E-05    3.13824529E-04    3.50697355E+00   -6.17641942E+01    3.50697484E+00   
                   1.30000000E+02    0.00000000E+00   -3.20019965E-01    4.88498102E-01   -6.68270001E-05    3.38742362E-04    3.46262193E+00   -6.11022633E+01    3.46262344E+00   
                   1.35000000E+02    0.00000000E+00   -2.80706732E-01    4.86121434E-01   -7.04497896E-05    3.58162835E-04    3.11915455E+00   -6.06190019E+01    3.11915638E+00   
                   1.40000000E+02    0.00000000E+00   -2.36785423E-01    4.53342533E-01   -7.31926599E-05    3.72611042E-04    2.31068639E+00   -6.02759349E+01    2.31068878E+00   
                   1.45000000E+02    0.00000000E+00   -1.91187823E-01    3.87347611E-01   -7.51695750E-05    3.82772060E-04    8.43434202E-01   -6.00423264E+01    8.43437743E-01   
                   1.50000000E+02    0.00000000E+00   -1.47218348E-01    2.93998108E-01   -7.65108215E-05    3.89423685E-04   -1.52688815E+00   -5.98925362E+01   -1.52688182E+00   
                   1.55000000E+02    0.00000000E+00   -1.07793621E-01    1.87894155E-01   -7.73520160E-05    3.93371516E-04   -5.15155121E+00   -5.98046513E+01   -5.15153634E+00   
                   1.60000000E+02    0.00000000E+00   -7.47818503E-02    8.88915836E-02   -7.78242134E-05    3.95390752E-04   -1.05640522E+01   -5.97598667E+01   -1.05639999E+01   
                   1.65000000E+02    0.00000000E+00   -4.86820858E-02    1.58186230E-02   -7.80455631E-05    3.96177294E-04   -1.76821698E+01   -5.97423287E+01   -1.76818996E+01   
                   1.70000000E+02    0.00000000E+00   -2.87169620E-02   -2.03551702E-02   -7.81146947E-05    3.96309162E-04   -2.09347696E+01   -5.97392587E+01   -2.09341978E+01   
                   1.75000000E+02    0.00000000E+00   -1.32104503E-02   -2.10369012E-02   -7.81058169E-05    3.96218063E-04   -2.39621470E+01   -5.97412177E+01   -2.39609993E+01   
                   1.80000000E+02    0.00000000E+00   -1.60292447E-05   -8.45761957E-05   -7.80653951E-05    3.96170225E-04   -7.31672488E+01   -5.97423954E+01   -5.95493711E+01   
                   0.00000000E+00    5.00000000E+00    6.80993724E-05    4.96485171E-05    5.99434839E-05   -4.04940567E-04   -7.33513594E+01   -5.96235068E+01   -5.94432242E+01   
                   5.00000000E+00    5.00000000E+00   -1.51063632E-02   -2.05619215E-02    9.25278550E-04    5.18690673E-03   -2.37296963E+01   -3.74312549E+01   -2.35483415E+01   
                   1.00000000E+01    5.00000000E+00   -3.51172855E-02   -1.98740732E-02    1.90120817E-03    9.44715785E-03   -1.97483874E+01   -3.21870266E+01   -1.95074967E+01   
                   1.50000000E+01    5.00000000E+00   -5.85776556E-02    1.62237806E-02    2.63084707E-03    1.14442158E-02   -1.61898529E+01   -3.04700989E+01   -1.60307133E+01   
                   2.00000000E+01    5.00000000E+00   -8.35035611E-02    8.95665017E-02    2.79285760E-03    1.08224666E-02   -1.01060061E+01   -3.08989490E+01   -1.00699742E+01   
                   2.50000000E+01    5.00000000E+00   -1.08963420E-01    1.89754207E-01    2.21616761E-03    7.85014525E-03   -5.06395876E+00   -3.36348931E+01   -5.05792776E+00   
                   3.00000000E+01    5.00000000E+00   -1.35766426E-01    2.98588939E-01    9.39191823E-04    3.29101542E-03   -1.54783831E+00   -4.11788408E+01   -1.54736553E+00   
                   3.50000000E+01    5.00000000E+00   -1.65919393E-01    3.96733130E-01   -8.06600609E-04   -1.84530816E-03    8.04517964E-01   -4.57847420E+01    8.04613211E-01   
                   4.00000000E+01    5.00000000E+00   -2.01309243E-01    4.69772579E-01   -2.67705069E-03   -6.58370809E-03    2.30445436E+00   -3.48315422E+01    2.30529409E+00   
                   4.50000000E+01    5.00000000E+00   -2.42437485E-01    5.11543916E-01   -4.32332778E-03   -1.02046491E-02    3.19217325E+00   -3.09725676E+01    3.19383753E+00   
                   5.00000000E+01    5.00000000E+00   -2.87882889E-01    5.24082607E-01   -5.48510411E-03   -1.23506470E-02    3.66776419E+00   -2.92498730E+01    3.66998192E+00   
                   5.50000000E+01    5.00000000E+00   -3.34673606E-01    5.15015192E-01   -6.03931657E-03   -1.30124293E-02    3.90078707E+00   -2.87310884E+01    3.90315560E+00   
                   6.00000000E+01    5.00000000E+00   -3.79257469E-01    4.93984762E-01   -5.99788156E-03   -1.24302410E-02    4.02124659E+00   -2.90668530E+01    4.02337899E+00   
                   6.50000000E+01    5.00000000E+00   -4.18538974E-01    4.69596496E-01   -5.46807524E-03   -1.09632333E-02    4.10814208E+00   -3.01018866E+01    4.10978910E+00   
                   7.00000000E+01    5.00000000E+00   -4.50549017E-01    4.47705787E-01   -4.59864210E-03   -8.97315465E-03    4.19226283E+00   -3.17937565E+01    4.19335711E+00   
                   7.50000000E+01    5.00000000E+00   -4.74584782E-01    4.31120618E-01   -3.53231697E-03   -6.74811677E-03    4.27395768E+00   -3.42301179E+01    4.27457052E+00   
                   8.00000000E+01    5.00000000E+00   -4.90912742E-01    4.20295651E-01   -2.37636516E-03   -4.47094288E-03    4.34258822E+00   -3.77768942E+01    4.34285480E+00   
                   8.50000000E+01    5.00000000E+00   -5.00256079E-01    4.14448040E-01   -1.19321143E-03   -2.22289870E-03    4.38789284E+00   -4.38274657E+01    4.38795834E+00   
                   9.00000000E+01    5.00000000E+00   -5.03286402E-01    4.12622560E-01   -7.14923359E-06   -9.27506321E-06    4.40362212E+00   -9.04938829E+01    4.40362213E+00   
                   9.50000000E+01    5.00000000E+00   -5.00269781E-01    4.14417195E-01    1.17887738E-03    2.20448828E-03    4.38777082E+00   -4.39070048E+01    4.38783513E+00   
                   1.00000000E+02    5.00000000E+00   -4.90941690E-01    4.20236781E-01    2.36192059E-03    4.45298406E-03    4.34236923E+00   -3.78158120E+01    4.34263345E+00   
                   1.05000000E+02    5.00000000E+00   -4.74631589E-01    4.31039615E-01    3.51768166E-03    6.73101089E-03    4.27368926E+00   -3.42551746E+01    4.27429861E+00   
                   1.10000000E+02    5.00000000E+00   -4.50616377E-01    4.47611882E-01    4.58374585E-03    8.95742375E-03    4.19201123E+00   -3.18116858E+01    4.19310106E+00   
                   1.15000000E+02    5.00000000E+00   -4.18628165E-01    4.69502117E-01    5.45289623E-03    1.09495061E-02    4.10798882E+00   -3.01154079E+01    4.10963078E+00   
                   1.20000000E+02    5.00000000E+00   -3.79366529E-01    4.93904478E-01    5.98250504E-03    1.24191759E-02    4.02128492E+00   -2.90773347E+01    4.02341216E+00   
                   1.25000000E+02    5.00000000E+00   -3.34795635E-01    5.14963397E-01    6.02399777E-03    1.30045675E-02    3.90111339E+00   -2.87393124E+01    3.90347726E+00   
                   1.30000000E+02    5.00000000E+00   -2.88005259E-01    5.24070018E-01    5.47030447E-03    1.23462141E-02    3.66845985E+00   -2.92563370E+01    3.67067394E+00   
                   1.35000000E+02    5.00000000E+00   -2.42542823E-01    5.11573617E-01    4.30968514E-03    1.02033535E-02    3.19327730E+00   -3.09776700E+01    3.19493920E+00   
                   1.40000000E+02    5.00000000E+00   -2.01378762E-01    4.69836989E-01    2.66525149E-03    6.58461444E-03    2.30592577E+00   -3.48359379E+01    2.30676438E+00   
                   1.45000000E+02    5.00000000E+00   -1.65938294E-01    3.96813508E-01    7.97152939E-04    1.84686827E-03    8.06162906E-01   -4.57948102E+01    8.06257897E-01   
                   1.50000000E+02    5.00000000E+00   -1.35729920E-01    2.98658545E-01   -9.46234578E-04   -3.29072572E-03   -1.54656048E+00   -4.11746263E+01   -1.54608738E+00   
                   1.55000000E+02    5.00000000E+00   -1.08880980E-01    1.89784965E-01   -2.22143095E-03   -7.85300235E-03   -5.06452889E+00   -3.36304424E+01   -5.05849092E+00   
                   1.60000000E+02    5.00000000E+00   -8.33989710E-02    8.95374562E-02   -2.79769398E-03   -1.08297910E-02   -1.01125736E+01   -3.08925006E+01   -1.00764340E+01   
                   1.65000000E+02    5.00000000E+00   -5.84836654E-02    1.61284880E-02   -2.63711918E-03   -1.14563395E-02   -1.62064421E+01   -3.04603249E+01   -1.60463511E+01   
                   1.70000000E+02    5.00000000E+00   -3.50659455E-02   -2.00240642E-02   -1.91081513E-03   -9.46322760E-03   -1.97420408E+01   -3.21711312E+01   -1.95006342E+01   
                   1.75000000E+02    5.00000000E+00   -1.51183560E-02   -2.07391557E-02   -9.39556973E-04   -5.20501840E-03   -2.36787450E+01   -3.73977732E+01   -2.34981032E+01   
                   1.80000000E+02    5.00000000E+00   -9.16440108E-06   -1.18782868E-04   -7.91653738E-05    3.87291377E-04   -7.03446207E+01   -5.99269444E+01   -5.95493711E+01   
                   0.00000000E+00    1.00000000E+01    7.30646526E-05    1.41666936E-05    5.37801294E-05   -4.07726799E-04   -7.44310493E+01   -5.95831767E+01   -5.94432242E+01   
                   5.00000000E+00    1.00000000E+01   -1.67973958E-02   -1.93080142E-02    2.12472688E-03    1.05534550E-02   -2.37033775E+01   -3.12250167E+01   -2.29958191E+01   
                   1.00000000E+01    1.00000000E+01   -4.09971764E-02   -1.79198222E-02    4.97488666E-03    1.87877375E-02   -1.88510728E+01   -2.60936732E+01   -1.81004009E+01   
                   1.50000000E+01    1.00000000E+01   -6.78846316E-02    1.81210620E-02    7.46249003E-03    2.25306620E-02   -1.49311078E+01   -2.43579239E+01   -1.44618325E+01   
                   2.00000000E+01    1.00000000E+01   -9.19959324E-02    9.05650231E-02    8.43192733E-03    2.12279551E-02   -9.64734685E+00   -2.46910679E+01   -9.51347131E+00   
                   2.50000000E+01    1.00000000E+01   -1.10619673E-01    1.89238116E-01    7.14590195E-03    1.55709769E-02   -5.04873873E+00   -2.71891060E+01   -5.02228880E+00   
                   3.00000000E+01    1.00000000E+01   -1.25501092E-01    2.96699165E-01    3.54826563E-03    7.16502556E-03   -1.70429658E+00   -3.38085754E+01   -1.70162220E+00   
                   3.50000000E+01    1.00000000E+01   -1.41945792E-01    3.94844337E-01   -1.73580664E-03   -2.02012923E-03    5.90904851E-01   -4.33565924E+01    5.91079846E-01   
                   4.00000000E+01    1.00000000E+01   -1.66081236E-01    4.70565288E-01   -7.63909270E-03   -1.02088206E-02    2.09677760E+00   -2.97549139E+01    2.09961208E+00   
                   4.50000000E+01    1.00000000E+01   -2.01903698E-01    5.18509657E-01   -1.30116795E-02   -1.62077870E-02    3.04278145E+00   -2.55106728E+01    3.04883676E+00   
                   5.00000000E+01    1.00000000E+01   -2.49585303E-01    5.40620434E-01   -1.69496683E-02   -1.95400046E-02    3.63146584E+00   -2.36105417E+01    3.63965377E+00   
                   5.50000000E+01    1.00000000E+01   -3.05609667E-01    5.43506192E-01   -1.89823142E-02   -2.03485882E-02    4.03174898E+00   -2.29758559E+01    4.04039053E+00   
                   6.00000000E+01    1.00000000E+01   -3.64305089E-01    5.35227515E-01   -1.90859453E-02   -1.91673854E-02    4.35860317E+00   -2.32223668E+01    4.36617688E+00   
                   6.50000000E+01    1.00000000E+01   -4.19810792E-01    5.22780743E-01   -1.75659397E-02   -1.66690987E-02    4.66221952E+00   -2.41833759E+01    4.66788116E+00   
                   7.00000000E+01    1.00000000E+01   -4.67589721E-01    5.10841487E-01   -1.48834323E-02   -1.34701296E-02    4.94331256E+00   -2.58128421E+01    4.94695999E+00   
                   7.50000000E+01    1.00000000E+01   -5.05058076E-01    5.01670379E-01   -1.14976558E-02   -1.00230571E-02    5.18252442E+00   -2.81982962E+01    5.18451785E+00   
                   8.00000000E+01    1.00000000E+01   -5.31387300E-01    4.95737506E-01   -7.76500321E-03   -6.58856535E-03    5.36192137E+00   -3.17074970E+01    5.36277408E+00   
                   8.50000000E+01    1.00000000E+01   -5.46819576E-01    4.92588903E-01   -3.90369229E-03   -3.26005607E-03    5.47175969E+00   -3.77380482E+01    5.47196709E+00   
                   9.00000000E+01    1.00000000E+01   -5.51888350E-01    4.91617340E-01   -1.19339371E-05   -1.38760516E-05    5.50858878E+00   -8.66154947E+01    5.50858878E+00   
                   9.50000000E+01    1.00000000E+01   -5.46841275E-01    4.92564318E-01    3.87988646E-03    3.23255851E-03    5.47175578E+00   -3.77995669E+01    5.47196026E+00   
                   1.00000000E+02    1.00000000E+01   -5.31430876E-01    4.95691484E-01    7.74139621E-03    6.56189296E-03    5.36192702E+00   -3.17376200E+01    5.36277383E+00   
                   1.05000000E+02    1.00000000E+01   -5.05123444E-01    5.01609215E-01    1.14744250E-02    9.99794579E-03    5.18256442E+00   -2.82176858E+01    5.18454896E+00   
                   1.10000000E+02    1.00000000E+01   -4.67675719E-01    5.10774417E-01    1.48608287E-02    1.34475260E-02    4.94342041E+00   -2.58266676E+01    4.94705616E+00   
                   1.15000000E+02    1.00000000E+01   -4.19914129E-01    5.22719242E-01    1.75443254E-02    1.66501095E-02    4.66243665E+00   -2.41936940E+01    4.66808457E+00   
                   1.20000000E+02    1.00000000E+01   -3.64419337E-01    5.35183772E-01    1.90658247E-02    1.91531047E-02    4.35898061E+00   -2.32301787E+01    4.36654006E+00   
                   1.25000000E+02    1.00000000E+01   -3.05724706E-01    5.43490677E-01    1.89643420E-02    2.03398057E-02    4.03234613E+00   -2.29816885E+01    4.04097491E+00   
                   1.30000000E+02    1.00000000E+01   -2.49687708E-01    5.40638865E-01    1.69346098E-02    1.95368470E-02    3.63233612E+00   -2.36146564E+01    3.64051466E+00   
                   1.35000000E+02    1.00000000E+01   -2.01978481E-01    5.18560168E-01    1.30002970E-02    1.62093982E-02    3.04393973E+00   -2.55131250E+01    3.04999001E+00   
                   1.40000000E+02    1.00000000E+01   -1.66114997E-01    4.70636951E-01    7.63194349E-03    1.02132228E-02    2.09814934E+00   -2.97554288E+01    2.10098258E+00   
                   1.45000000E+02    1.00000000E+01   -1.41930799E-01    3.94918087E-01    1.73296810E-03    2.02438884E-03    5.92236482E-01   -4.33520756E+01    5.92411606E-01   
                   1.50000000E+02    1.00000000E+01   -1.25439101E-01    2.96751541E-01   -3.54748497E-03   -7.16428515E-03   -1.70364689E+00   -3.38096727E+01   -1.70097359E+00   
                   1.55000000E+02    1.00000000E+01   -1.10523910E-01    1.89247140E-01   -7.14315435E-03   -1.55768042E-02   -5.05034449E+00   -2.71870018E+01   -5.02387203E+00   
                   1.60000000E+02    1.00000000E+01   -9.18898073E-02    9.05165655E-02   -8.42978539E-03   -2.12422515E-02   -9.65472535E+00   -2.46863169E+01   -9.52048111E+00   
                   1.65000000E+02    1.00000000E+01   -6.77967002E-02    1.80136250E-02   -7.46407291E-03   -2.25535759E-02   -1.49450411E+01   -2.43497850E+01   -1.44735000E+01   
                   1.70000000E+02    1.00000000E+01   -4.09534006E-02   -1.80735479E-02   -4.98316399E-03   -1.88174803E-02   -1.88468539E+01   -2.60798876E+01   -1.80946620E+01   
                   1.75000000E+02    1.00000000E+01   -1.68132183E-02   -1.94834422E-02   -2.14167049E-03   -1.05866125E-02   -2.36549974E+01   -3.11961360E+01   -2.29503650E+01   
                   1.80000000E+02    1.00000000E+01   -2.22981067E-06   -1.52085530E-04   -7.96628561E-05    3.75465007E-04   -6.82227803E+01   -6.01828504E+01   -5.95493711E+01   
                   0.00000000E+00    1.50000000E+01    7.74738667E-05   -2.14229470E-05    4.72074757E-05   -4.07409984E-04   -7.37623784E+01   -5.96069164E+01   -5.94432242E+01   
                   5.00000000E+00    1.50000000E+01   -1.81781379E-02   -1.71565966E-02    3.60228974E-03    1.55329699E-02   -2.39081066E+01   -2.78128681E+01   -2.24253697E+01   
                   1.00000000E+01    1.50000000E+01   -4.60915929E-02   -1.44976084E-02    9.11079358E-03    2.72977444E-02   -1.81833179E+01   -2.26842589E+01   -1.68647695E+01   
                   1.50000000E+01    1.50000000E+01   -7.62062309E-02    2.13447470E-02    1.42984400E-02    3.24098813E-02   -1.38976560E+01   -2.08795681E+01   -1.31045446E+01   
                   2.00000000E+01    1.50000000E+01   -9.99162521E-02    9.16035066E-02    1.67679997E-02    3.03264450E-02   -9.22332587E+00   -2.10705512E+01   -8.94838322E+00   
                   2.50000000E+01    1.50000000E+01   -1.12689031E-01    1.86038762E-01    1.49117358E-02    2.23851573E-02   -5.11601210E+00   -2.32713557E+01   -5.05010226E+00   
                   3.00000000E+01    1.50000000E+01   -1.16656159E-01    2.88036657E-01    8.48138455E-03    1.11603210E-02   -2.01687959E+00   -2.89321412E+01   -2.00805251E+00   
                   3.50000000E+01    1.50000000E+01   -1.19474657E-01    3.81262859E-01   -1.38632449E-03   -4.68173916E-04    1.65824743E-01   -4.85591379E+01    1.65882992E-01   
                   4.00000000E+01    1.50000000E+01   -1.30493918E-01    4.54810375E-01   -1.26412192E-02   -1.01604733E-02    1.63470341E+00   -2.76653257E+01    1.63980289E+00   
                   4.50000000E+01    1.50000000E+01   -1.56515595E-01    5.05115267E-01   -2.30390871E-02   -1.66029026E-02    2.60049896E+00   -2.27996654E+01    2.61300565E+00   
                   5.00000000E+01    1.50000000E+01   -1.99231529E-01    5.34770924E-01   -3.07986239E-02   -1.95568420E-02    3.26234777E+00   -2.06236086E+01    3.28006120E+00   
                   5.50000000E+01    1.50000000E+01   -2.55167051E-01    5.49663946E-01   -3.49731895E-02   -1.95773794E-02    3.78403612E+00   -1.98069408E+01    3.80299176E+00   
                   6.00000000E+01    1.50000000E+01   -3.17578062E-01    5.56085156E-01   -3.54790941E-02   -1.75993115E-02    4.26328332E+00   -1.99106212E+01    4.27986256E+00   
                   6.50000000E+01    1.50000000E+01   -3.79018486E-01    5.58869799E-01   -3.28675523E-02   -1.45695687E-02    4.72408593E+00   -2.07510038E+01    4.73637901E+00   
                   7.00000000E+01    1.50000000E+01   -4.33391689E-01    5.60789058E-01   -2.79932316E-02   -1.12215675E-02    5.14427011E+00   -2.22772317E+01    5.15212682E+00   
                   7.50000000E+01    1.50000000E+01   -4.76898238E-01    5.62840943E-01   -2.17161034E-02   -7.99884390E-03    5.49228811E+00   -2.45773040E+01    5.49655991E+00   
                   8.00000000E+01    1.50000000E+01   -5.07925355E-01    5.64924435E-01   -1.47125805E-02   -5.08201670E-03    5.74724813E+00   -2.80221720E+01    5.74907098E+00   
                   8.50000000E+01    1.50000000E+01   -5.26295216E-01    5.66505037E-01   -7.40979787E-03   -2.46155764E-03    5.90091998E+00   -3.40147107E+01    5.90136277E+00   
                   9.00000000E+01    1.50000000E+01   -5.32360309E-01    5.67090316E-01   -1.83576137E-05   -1.44871731E-05    5.95207434E+00   -8.44865500E+01    5.95207435E+00   
                   9.50000000E+01    1.50000000E+01   -5.26320862E-01    5.66490382E-01    7.37338550E-03    2.43287725E-03    5.90099546E+00   -3.40633282E+01    5.90143331E+00   
                   1.00000000E+02    1.50000000E+01   -5.07975486E-01    5.64897909E-01    1.46771147E-02    5.05429304E-03    5.74740585E+00   -2.80459577E+01    5.74921868E+00   
                   1.05000000E+02    1.50000000E+01   -4.76970249E-01    5.62807927E-01    2.16823318E-02    7.97293779E-03    5.49253967E+00   -2.45925709E+01    5.49679625E+00   
                   1.10000000E+02    1.50000000E+01   -4.33481070E-01    5.60757032E-01    2.79620409E-02    1.11985818E-02    5.14462944E+00   -2.22880393E+01    5.15246601E+00   
                   1.15000000E+02    1.50000000E+01   -3.79118390E-01    5.58847375E-01    3.28399546E-02    1.45507661E-02    4.72456856E+00   -2.07589437E+01    4.73683785E+00   
                   1.20000000E+02    1.50000000E+01   -3.17679165E-01    5.56080507E-01    3.54561526E-02    1.75858784E-02    4.26390869E+00   -1.99164397E+01    4.28046340E+00   
                   1.25000000E+02    1.50000000E+01   -2.55257983E-01    5.49682718E-01    3.49558850E-02    1.95700500E-02    3.78482897E+00   -1.98109899E+01    3.80376354E+00   
                   1.30000000E+02    1.50000000E+01   -1.99300055E-01    5.34814008E-01    3.07876789E-02    1.95554600E-02    3.26332636E+00   -2.06259850E+01    3.28102615E+00   
                   1.35000000E+02    1.50000000E+01   -1.56550584E-01    5.05177139E-01    2.30347765E-02    1.66060639E-02    2.60163972E+00   -2.28001696E+01    2.61414168E+00   
                   1.40000000E+02    1.50000000E+01   -1.30487858E-01    4.54878815E-01    1.26431964E-02    1.01654285E-02    1.63588031E+00   -2.76628380E+01    1.64098133E+00   
                   1.45000000E+02    1.50000000E+01   -1.19426221E-01    3.81320647E-01    1.39348453E-03    4.71130044E-04    1.66708739E-01   -4.85133755E+01    1.66767592E-01   
                   1.50000000E+02    1.50000000E+01   -1.16572063E-01    2.88065166E-01   -8.47098683E-03   -1.11634832E-02   -2.01702303E+00   -2.89344776E+01   -2.00820041E+00   
                   1.55000000E+02    1.50000000E+01   -1.12584334E-01    1.86022611E-01   -1.49008755E-02   -2.23979047E-02   -5.11872971E+00   -2.32698726E+01   -5.05275657E+00   
                   1.60000000E+02    1.50000000E+01   -9.98124123E-02    9.15348747E-02   -1.67601085E-02   -3.03506449E-02   -9.23120584E+00   -2.10661998E+01   -8.95551185E+00   
                   1.65000000E+02    1.50000000E+01   -7.61268110E-02    2.12260113E-02   -1.42971888E-02   -3.24451980E-02   -1.39095667E+01   -2.08717718E+01   -1.31131596E+01   
                   1.70000000E+02    1.50000000E+01   -4.60564498E-02   -1.46536350E-02   -9.11941291E-03   -2.73415698E-02   -1.81808817E+01   -2.26708982E+01   -1.68594701E+01   
                   1.75000000E+02    1.50000000E+01   -1.81978663E-02   -1.73287812E-02   -3.62275332E-03   -1.55808884E-02   -2.38620889E+01   -2.77849652E+01   -2.23845837E+01   
                   1.80000000E+02    1.50000000E+01    4.72175007E-06   -1.84230730E-04   -7.95540560E-05    3.60781122E-04   -6.65553784E+01   -6.05144040E+01   -5.95493711E+01   
                   0.00000000E+00    2.00000000E+01    8.12934578E-05   -5.68495460E-05    4.02755446E-05   -4.03992533E-04   -7.19353013E+01   -5.96950541E+01   -5.94432242E+01   
                   5.00000000E+00    2.00000000E+01   -1.91684546E-02   -1.41949208E-02    5.27333028E-03    1.99733158E-02   -2.43149182E+01   -2.55638244E+01   -2.18843315E+01   
                   1.00000000E+01    2.00000000E+01   -5.01201107E-02   -9.80742642E-03    1.40535501E-02    3.46930673E-02   -1.77020443E+01   -2.04007457E+01   -1.58347620E+01   
                   1.50000000E+01    2.00000000E+01   -8.30781689E-02    2.56184343E-02    2.27424156E-02    4.06863727E-02   -1.30812383E+01   -1.84956772E+01   -1.19839484E+01   
                   2.00000000E+01    2.00000000E+01   -1.06756814E-01    9.25046492E-02    2.74393556E-02    3.76354426E-02   -8.86514426E+00   -1.85021859E+01   -8.41693879E+00   
                   2.50000000E+01    2.00000000E+01   -1.14790728E-01    1.80381943E-01    2.54820527E-02    2.77577883E-02   -5.26492657E+00   -2.03431087E+01   -5.13209311E+00   
                   3.00000000E+01    2.00000000E+01   -1.09053907E-01    2.73532463E-01    1.63772396E-02    1.47388049E-02   -2.48464144E+00   -2.50040593E+01   -2.46039602E+00   
                   3.50000000E+01    2.00000000E+01   -9.84186414E-02    3.57742473E-01    1.83530592E-03    2.33236543E-03   -4.77207705E-01   -4.24165624E+01   -4.76929839E-01   
                   4.00000000E+01    2.00000000E+01   -9.42217165E-02    4.24901988E-01   -1.49962410E-02   -6.78671265E-03    9.08773600E-01   -2.75366328E+01    9.14981337E-01   
                   4.50000000E+01    2.00000000E+01   -1.05209520E-01    4.73951005E-01   -3.06786418E-02   -1.15423535E-02    1.85809830E+00   -2.15537915E+01    1.87785013E+00   
                   5.00000000E+01    2.00000000E+01   -1.34444043E-01    5.08795093E-01   -4.25033867E-02   -1.23115058E-02    2.55850511E+00   -1.89470985E+01    2.58910312E+00   
                   5.50000000E+01    2.00000000E+01   -1.79117123E-01    5.35039695E-01   -4.90466980E-02   -1.03536370E-02    3.16358257E+00   -1.78639333E+01    3.19772735E+00   
                   6.00000000E+01    2.00000000E+01   -2.32601764E-01    5.57314696E-01   -5.01868806E-02   -7.15315188E-03    3.75392465E+00   -1.77663254E+01    3.78442000E+00   
                   6.50000000E+01    2.00000000E+01   -2.87260263E-01    5.78044682E-01   -4.67396653E-02   -3.93324968E-03    4.33228505E+00   -1.84411131E+01    4.35515685E+00   