##File Type: Far field
##File Format: 5
##Source: Yagi_6_element_V0_1_Panel_optimised_optimum
##Date: 2018-08-01 11:40:45
** File exported by POSTFEKO version 2018-319328 (x64)

#Configuration Name: StandardConfiguration1
#Request Name: Yagi_FarField
#Frequency: 5.80000000E+09
#Coordinate System: Spherical
#No. of Theta Samples: 37
#No. of Phi Samples: 73
#Result Type: Directivity
#No. of Header Lines: 1
#                 "Theta"           "Phi"             "Re(Etheta)"      "Im(Etheta)"      "Re(Ephi)"        "Im(Ephi)"        "Directivity(Theta)""Directivity(Phi)""Directivity(Total)"
                   0.00000000E+00    0.00000000E+00    9.89243106E-03   -1.54066381E-03    6.85272121E-05   -2.36302136E-04   -4.54097165E+01   -7.75998177E+01   -4.54070944E+01   
                   5.00000000E+00    0.00000000E+00   -1.24426145E-01   -2.39803093E-02    1.08309081E-04   -2.21008193E-04   -2.33632374E+01   -7.75968915E+01   -2.33632210E+01   
                   1.00000000E+01    0.00000000E+00   -1.56136672E-01   -1.40239191E-01    1.20300449E-04   -1.96858570E-04   -1.89808258E+01   -7.81586630E+01   -1.89808205E+01   
                   1.50000000E+01    0.00000000E+00   -1.20396688E-02   -2.00351814E-01    1.00008611E-04   -1.86977595E-04   -1.93683398E+01   -7.88913707E+01   -1.93683349E+01   
                   2.00000000E+01    0.00000000E+00    2.27955596E-01   -2.73391926E-02    5.89410607E-05   -2.13437628E-04   -1.82008322E+01   -7.85152704E+01   -1.82008282E+01   
                   2.50000000E+01    0.00000000E+00    3.60870844E-01    4.45361155E-01    2.00054263E-05   -2.86383587E-04   -1.02535238E+01   -7.62597565E+01   -1.02535227E+01   
                   3.00000000E+01    0.00000000E+00    1.87254641E-01    1.10192106E+00    6.66107158E-06   -3.99447878E-04   -4.45321236E+00   -7.33894502E+01   -4.45321181E+00   
                   3.50000000E+01    0.00000000E+00   -3.51883742E-01    1.68596641E+00    3.22540611E-05   -5.33607523E-04   -6.97702164E-01   -7.08595826E+01   -6.97701745E-01   
                   4.00000000E+01    0.00000000E+00   -1.11667985E+00    1.92368866E+00    9.50845212E-05   -6.66373717E-04    1.52404357E+00   -6.88579674E+01    1.52404397E+00   
                   4.50000000E+01    0.00000000E+00   -1.81948105E+00    1.64766473E+00    1.80641325E-04   -7.80757093E-04    2.37993417E+00   -6.73430696E+01    2.37993463E+00   
                   5.00000000E+01    0.00000000E+00   -2.14764789E+00    8.53752271E-01    2.68438785E-04   -8.69801716E-04    1.85659698E+00   -6.62363352E+01    1.85659765E+00   
                   5.50000000E+01    0.00000000E+00   -1.88778553E+00   -3.24142918E-01    3.39393194E-04   -9.35830349E-04    2.25383673E-01   -6.54592717E+01    2.25384846E-01   
                   6.00000000E+01    0.00000000E+00   -9.95505560E-01   -1.68811491E+00    3.80740585E-04   -9.86356242E-04    4.24315361E-01   -6.49359780E+01    4.24316625E-01   
                   6.50000000E+01    0.00000000E+00    4.05651061E-01   -3.05012619E+00    3.87605710E-04   -1.02951567E-03    4.34264106E+00   -6.45915014E+01    4.34264162E+00   
                   7.00000000E+01    0.00000000E+00    2.07736589E+00   -4.27315430E+00    3.61970778E-04   -1.07106635E-03    8.11647462E+00   -6.43538516E+01    8.11647487E+00   
                   7.50000000E+01    0.00000000E+00    3.73850927E+00   -5.27548128E+00    3.10377392E-04   -1.11351517E-03    1.07926460E+01   -6.41609824E+01    1.07926462E+01   
                   8.00000000E+01    0.00000000E+00    5.12781237E+00   -6.01398797E+00    2.41487606E-04   -1.15673777E-03    1.25363343E+01   -6.39698906E+01    1.25363344E+01   
                   8.50000000E+01    0.00000000E+00    6.04381939E+00   -6.46568092E+00    1.64154552E-04   -1.19897741E-03    1.35195755E+01   -6.37629854E+01    1.35195756E+01   
                   9.00000000E+01    0.00000000E+00    6.36284563E+00   -6.61781692E+00    8.62495361E-05   -1.23733287E-03    1.38374525E+01   -6.35490781E+01    1.38374526E+01   
                   9.50000000E+01    0.00000000E+00    6.04358232E+00   -6.46599504E+00    1.42347062E-05   -1.26748751E-03    1.35196418E+01   -6.33604386E+01    1.35196419E+01   
                   1.00000000E+02    0.00000000E+00    5.12738745E+00   -6.01453479E+00   -4.66911384E-05   -1.28313112E-03    1.25364887E+01   -6.32486925E+01    1.25364888E+01   
                   1.05000000E+02    0.00000000E+00    3.73798195E+00   -5.27611673E+00   -9.21516341E-05   -1.27594913E-03    1.07929330E+01   -6.32805988E+01    1.07929332E+01   
                   1.10000000E+02    0.00000000E+00    2.07683736E+00   -4.27370525E+00   -1.18192766E-04   -1.23696816E-03    8.11695810E+00   -6.35332190E+01    8.11695840E+00   
                   1.15000000E+02    0.00000000E+00    4.05217818E-01   -3.05043175E+00   -1.21271859E-04   -1.15941571E-03    4.34333491E+00   -6.40878200E+01    4.34333554E+00   
                   1.20000000E+02    0.00000000E+00   -9.95766637E-01   -1.68806553E+00   -9.89293811E-05   -1.04229317E-03    4.24714668E-01   -6.50211124E+01    4.24715907E-01   
                   1.25000000E+02    0.00000000E+00   -1.88782581E+00   -3.23707402E-01   -5.12284982E-05   -8.93028280E-04    2.25229715E-01   -6.63882878E+01    2.25230662E-01   
                   1.30000000E+02    0.00000000E+00   -2.14745169E+00    8.54519886E-01    1.74172564E-05   -7.27408719E-04    1.85697797E+00   -6.81818008E+01    1.85697840E+00   
                   1.35000000E+02    0.00000000E+00   -1.81906850E+00    1.64864120E+00    9.70442330E-05   -5.65872105E-04    2.38117207E+00   -7.02396083E+01    2.38117231E+00   
                   1.40000000E+02    0.00000000E+00   -1.11610703E+00    1.92471660E+00    1.72947990E-04   -4.27019384E-04    1.52639276E+00   -7.21512488E+01    1.52639295E+00   
                   1.45000000E+02    0.00000000E+00   -3.51236279E-01    1.68689801E+00    2.29342513E-04   -3.21124761E-04   -6.93770055E-01   -7.34964412E+01   -6.93769827E-01   
                   1.50000000E+02    0.00000000E+00    1.87877618E-01    1.10265635E+00    2.55049908E-04   -2.47148890E-04   -4.44676965E+00   -7.44115718E+01   -4.44676921E+00   
                   1.55000000E+02    0.00000000E+00    3.61380734E-01    4.45867875E-01    2.48438954E-04   -1.95322750E-04   -1.02427006E+01   -7.54253838E+01   -1.02426993E+01   
                   1.60000000E+02    0.00000000E+00    2.28298956E-01   -2.70304082E-02    2.18234712E-04   -1.54080659E-04   -1.81893233E+01   -7.68848711E+01   -1.81893175E+01   
                   1.65000000E+02    0.00000000E+00   -1.18663946E-02   -2.00173575E-01    1.78800741E-04   -1.17005943E-04   -1.93764900E+01   -7.88244919E+01   -1.93764851E+01   
                   1.70000000E+02    0.00000000E+00   -1.56089984E-01   -1.40122603E-01    1.42267601E-04   -8.50925247E-05   -1.89854885E+01   -8.10295651E+01   -1.89854858E+01   
                   1.75000000E+02    0.00000000E+00   -1.24435909E-01   -2.38838254E-02    1.12624487E-04   -6.29066811E-05   -2.33638293E+01   -8.32079287E+01   -2.33638248E+01   
                   1.80000000E+02    0.00000000E+00    9.89336778E-03   -1.46078479E-03    8.59209710E-05   -5.19711921E-05   -4.54193121E+01   -8.53837823E+01   -4.54188742E+01   
                   0.00000000E+00    5.00000000E+00    9.86075991E-03   -1.55539621E-03   -7.93915731E-04   -1.01125236E-04   -4.54349195E+01   -6.73544755E+01   -4.54070944E+01   
                   5.00000000E+00    5.00000000E+00   -1.23979096E-01   -2.38888037E-02    6.15098714E-03   -1.33534251E-03   -2.33945706E+01   -4.94409584E+01   -2.33837909E+01   
                   1.00000000E+01    5.00000000E+00   -1.56184248E-01   -1.40400378E-01    1.30947456E-02   -4.03419474E-03   -1.89749044E+01   -4.26841279E+01   -1.89564568E+01   
                   1.50000000E+01    5.00000000E+00   -1.34992950E-02   -2.02824846E-01    1.99891753E-02   -7.98826433E-03   -1.92582412E+01   -3.87604919E+01   -1.92098089E+01   
                   2.00000000E+01    5.00000000E+00    2.26100469E-01   -3.52075016E-02    2.67064048E-02   -1.31056283E-02   -1.82297815E+01   -3.59504786E+01   -1.81569918E+01   
                   2.50000000E+01    5.00000000E+00    3.62031939E-01    4.30510053E-01    3.29260488E-02   -1.92232965E-02   -1.04174125E+01   -3.37952322E+01   -1.03975055E+01   
                   3.00000000E+01    5.00000000E+00    1.95098064E-01    1.08252572E+00    3.80543313E-02   -2.58561597E-02   -4.59227488E+00   -3.21633221E+01   -4.58468386E+00   
                   3.50000000E+01    5.00000000E+00   -3.37163925E-01    1.66896138E+00    4.12359301E-02   -3.19832245E-02   -7.97210704E-01   -3.10688596E+01   -7.93133002E-01   
                   4.00000000E+01    5.00000000E+00   -1.10114031E+00    1.91841097E+00    4.15178644E-02   -3.60012497E-02    1.47572400E+00   -3.06200451E+01    1.47840362E+00   
                   4.50000000E+01    5.00000000E+00   -1.81511475E+00    1.66262407E+00    3.81691080E-02   -3.59727166E-02    2.40412105E+00   -3.10250849E+01    2.40609240E+00   
                   5.00000000E+01    5.00000000E+00   -2.16872011E+00    8.94373895E-01    3.10645799E-02   -3.02228392E-02    1.98633361E+00   -3.26819142E+01    1.98781574E+00   
                   5.50000000E+01    5.00000000E+00   -1.94553382E+00   -2.55652261E-01    2.09612072E-02   -1.81801954E-02    4.35266033E-01   -3.65555636E+01    4.36134309E-01   
                   6.00000000E+01    5.00000000E+00   -1.09377398E+00   -1.59127974E+00    9.49205667E-03   -1.14853830E-03    2.95496259E-01   -4.58095296E+01    2.95602741E-01   
                   6.50000000E+01    5.00000000E+00    2.71805756E-01   -2.92463736E+00   -1.18879312E-03    1.74384511E-02    3.93893026E+00   -4.05695658E+01    3.93908405E+00   
                   7.00000000E+01    5.00000000E+00    1.91950315E+00   -4.11857138E+00   -9.00676512E-03    3.26476881E-02    7.72873531E+00   -3.48242510E+01    7.72897657E+00   
                   7.50000000E+01    5.00000000E+00    3.57010084E+00   -5.09244608E+00   -1.25763828E-02    3.95759706E-02    1.04548505E+01   -3.30534223E+01    1.04550441E+01   
                   8.00000000E+01    5.00000000E+00    4.95917836E+00   -5.80605575E+00   -1.15812327E-02    3.52861015E-02    1.22371036E+01   -3.40234808E+01    1.22372063E+01   
                   8.50000000E+01    5.00000000E+00    5.87905680E+00   -6.24043011E+00   -6.81408632E-03    2.02894570E-02    1.32433842E+01   -3.88103156E+01    1.32434113E+01   
                   9.00000000E+01    5.00000000E+00    6.20017147E+00   -6.38632496E+00    7.15086493E-05   -1.23294023E-03    1.35688870E+01   -6.35864352E+01    1.35688871E+01   
                   9.50000000E+01    5.00000000E+00    5.87882867E+00   -6.24072209E+00    6.96576469E-03   -2.27431861E-02    1.32434410E+01   -3.78934272E+01    1.32434745E+01   
                   1.00000000E+02    5.00000000E+00    4.95876927E+00   -5.80655683E+00    1.17569601E-02   -3.77018941E-02    1.22372348E+01   -3.34895637E+01    1.22373510E+01   
                   1.05000000E+02    5.00000000E+00    3.56959256E+00   -5.09301062E+00    1.27862852E-02   -4.19242245E-02    1.04550886E+01   -3.25842932E+01    1.04553043E+01   
                   1.10000000E+02    5.00000000E+00    1.91899231E+00   -4.11902674E+00    9.25382165E-03   -3.48943211E-02    7.72911184E+00   -3.42695932E+01    7.72938594E+00   
                   1.15000000E+02    5.00000000E+00    2.71384432E-01   -2.92482672E+00    1.46882278E-03   -1.95463717E-02    3.93937260E+00   -3.95740820E+01    3.93956599E+00   
                   1.20000000E+02    5.00000000E+00   -1.09403215E+00   -1.59110149E+00   -9.18870076E-03   -7.83927823E-04    2.95493430E-01   -4.61232821E+01    2.95592490E-01   
                   1.25000000E+02    5.00000000E+00   -1.94558161E+00   -2.55085631E-01   -2.06468787E-02    1.64551706E-02    4.35149354E-01   -3.69871196E+01    4.35935527E-01   
                   1.30000000E+02    5.00000000E+00   -2.16854131E+00    8.95264376E-01   -3.07513329E-02    2.87281732E-02    1.98697921E+00   -3.29377911E+01    1.98837634E+00   
                   1.35000000E+02    5.00000000E+00   -1.81472748E+00    1.66370700E+00   -3.78661160E-02    3.47190594E-02    2.40569515E+00   -3.12050452E+01    2.40758582E+00   
                   1.40000000E+02    5.00000000E+00   -1.10059787E+00    1.91952468E+00   -4.12296647E-02    3.49854401E-02    1.47845706E+00   -3.07602850E+01    1.48104993E+00   
                   1.45000000E+02    5.00000000E+00   -3.36549159E-01    1.66995789E+00   -4.09617770E-02    3.11883196E-02   -7.92849008E-01   -3.11864534E+01   -7.88884169E-01   
                   1.50000000E+02    5.00000000E+00    1.95688277E-01    1.08330809E+00   -3.77890466E-02    2.52526281E-02   -4.58537020E+00   -3.22691723E+01   -4.57797356E+00   
                   1.55000000E+02    5.00000000E+00    3.62510496E-01    4.31050852E-01   -3.26627810E-02    1.87712438E-02   -1.04062723E+01   -3.38993724E+01   -1.03868856E+01   
                   1.60000000E+02    5.00000000E+00    2.26414760E-01   -3.48724722E-02   -2.64411243E-02    1.27585896E-02   -1.82199439E+01   -3.60652173E+01   -1.81491958E+01   
                   1.65000000E+02    5.00000000E+00   -1.33523207E-02   -2.02623695E-01   -1.97254551E-02    7.69933748E-03   -1.92672373E+01   -3.89034619E+01   -1.92202683E+01   
                   1.70000000E+02    5.00000000E+00   -1.56160515E-01   -1.40261057E-01   -1.28461875E-02    3.76431078E-03   -1.89794870E+01   -4.28866116E+01   -1.89618595E+01   
                   1.75000000E+02    5.00000000E+00   -1.24007600E-01   -2.37683418E-02   -5.93888177E-03    1.06149604E-03   -2.33942089E+01   -4.98091934E+01   -2.33843054E+01   
                   1.80000000E+02    5.00000000E+00    9.84823202E-03   -1.45069648E-03    9.47857835E-04   -1.79089215E-04   -4.54594656E+01   -6.57326616E+01   -4.54188742E+01   
                   0.00000000E+00    1.00000000E+01    9.75404243E-03   -1.55829110E-03   -1.65031650E-03    3.48212879E-05   -4.55267141E+01   -6.10665822E+01   -4.54070944E+01   
                   5.00000000E+00    1.00000000E+01   -1.22672287E-01   -2.35666241E-02    1.19688079E-02   -2.38033407E-03   -2.34875352E+01   -4.36903778E+01   -2.34462841E+01   
                   1.00000000E+01    1.00000000E+01   -1.56371465E-01   -1.40768140E-01    2.54998670E-02   -7.56437583E-03   -1.89589900E+01   -3.69228227E+01   -1.88901322E+01   
                   1.50000000E+01    1.00000000E+01   -1.79773240E-02   -2.09910298E-01    3.87571763E-02   -1.49399751E-02   -1.89474472E+01   -3.30511595E+01   -1.87818298E+01   
                   2.00000000E+01    1.00000000E+01    2.20245449E-01   -5.81534631E-02    5.14048889E-02   -2.41160351E-02   -1.82690331E+01   -3.03358481E+01   -1.80072463E+01   
                   2.50000000E+01    1.00000000E+01    3.64998872E-01    3.86780583E-01    6.27664251E-02   -3.45738133E-02   -1.09047067E+01   -2.83144787E+01   -1.08265630E+01   
                   3.00000000E+01    1.00000000E+01    2.18360889E-01    1.02481049E+00    7.17206552E-02   -4.52740035E-02   -5.01416096E+00   -2.68504046E+01   -4.98579868E+00   
                   3.50000000E+01    1.00000000E+01   -2.91695320E-01    1.61737201E+00    7.67665349E-02   -5.43799135E-02   -1.10464896E+00   -2.59502920E+01   -1.09044173E+00   
                   4.00000000E+01    1.00000000E+01   -1.04958126E+00    1.90041478E+00    7.63233114E-02   -5.93062374E-02    1.31329601E+00   -2.57152394E+01    1.32189606E+00   
                   4.50000000E+01    1.00000000E+01   -1.79144846E+00    1.70351778E+00    6.92491119E-02   -5.72396182E-02    2.44144785E+00   -2.63501489E+01    2.44718027E+00   
                   5.00000000E+01    1.00000000E+01   -2.21508331E+00    1.01033842E+00    5.54353992E-02   -4.61141824E-02    2.30876604E+00   -2.82601596E+01    2.31257408E+00   
                   5.50000000E+01    1.00000000E+01   -2.09759097E+00   -5.83369512E-02    3.62386538E-02   -2.57834674E-02    1.01791390E+00   -3.24575374E+01    1.01986439E+00   
                   6.00000000E+01    1.00000000E+01   -1.36824245E+00   -1.31202672E+00    1.45123303E-02    1.09870702E-03    1.35318276E-01   -4.21602952E+01    1.35574258E-01   
                   6.50000000E+01    1.00000000E+01   -1.18065961E-01   -2.56371919E+00   -5.87734825E-03    2.90451380E-02    2.76675000E+00   -3.59841074E+01    2.76732899E+00   
                   7.00000000E+01    1.00000000E+01    1.44046529E+00   -3.67572788E+00   -2.09727534E-02    5.08922825E-02    6.50746317E+00   -3.06056046E+01    6.50830735E+00   
                   7.50000000E+01    1.00000000E+01    3.03625448E+00   -4.56996140E+00   -2.78198494E-02    5.99975829E-02    9.36629379E+00   -2.90114158E+01    9.36692472E+00   
                   8.00000000E+01    1.00000000E+01    4.40069111E+00   -5.21394393E+00   -2.53812599E-02    5.27505661E-02    1.12594575E+01   -3.00709337E+01    1.12597772E+01   
                   8.50000000E+01    1.00000000E+01    5.31405536E+00   -5.59982574E+00   -1.49507782E-02    3.03295287E-02    1.23324009E+01   -3.48378551E+01    1.23324842E+01   
                   9.00000000E+01    1.00000000E+01    5.63467610E+00   -5.72823372E+00    9.33542748E-05   -1.20604310E-03    1.26799256E+01   -6.37666599E+01    1.26799257E+01   
                   9.50000000E+01    1.00000000E+01    5.31385904E+00   -5.60008708E+00    1.51469633E-02   -3.27255329E-02    1.23324622E+01   -3.42791205E+01    1.23325569E+01   
                   1.00000000E+02    1.00000000E+01    4.40033924E+00   -5.21438277E+00    2.56035215E-02   -5.50972529E-02    1.12595955E+01   -2.97481283E+01    1.12599399E+01   
                   1.05000000E+02    1.00000000E+01    3.03581791E+00   -4.57043192E+00    2.80784257E-02   -6.22593218E-02    9.36653179E+00   -2.87316963E+01    9.36720465E+00   
                   1.10000000E+02    1.00000000E+01    1.44002828E+00   -3.67606032E+00    2.12693820E-02   -5.30317238E-02    6.50779342E+00   -3.02813603E+01    6.50870296E+00   
                   1.15000000E+02    1.00000000E+01   -1.18422197E-01   -2.56376428E+00    6.20554230E-03   -3.10259899E-02    2.76695798E+00   -3.54149952E+01    2.76761800E+00   
                   1.20000000E+02    1.00000000E+01   -1.36845187E+00   -1.31169472E+00   -1.41648835E-02   -2.88965435E-03    1.34958172E-01   -4.22185213E+01    1.35210766E-01   
                   1.25000000E+02    1.00000000E+01   -2.09761014E+00   -5.76209474E-02   -3.58865640E-02    2.42051264E-02    1.01791132E+00   -3.26927816E+01    1.01975899E+00   
                   1.30000000E+02    1.00000000E+01   -2.21489638E+00    1.01136134E+00   -5.50921147E-02    4.47603137E-02    2.30967443E+00   -2.83967381E+01    2.31336386E+00   
                   1.35000000E+02    1.00000000E+01   -1.79107133E+00    1.70470800E+00   -6.89243687E-02    5.61107915E-02    2.44337005E+00   -2.64441447E+01    2.44897733E+00   
                   1.40000000E+02    1.00000000E+01   -1.04906319E+00    1.90160828E+00   -7.60217274E-02    5.83925518E-02    1.31647428E+00   -2.57871808E+01    1.32492699E+00   
                   1.45000000E+02    1.00000000E+01   -2.91114075E-01    1.61842379E+00   -7.64872718E-02    5.36622051E-02   -1.09972416E+00   -2.60097499E+01   -1.08572565E+00   
                   1.50000000E+02    1.00000000E+01    2.18913760E-01    1.02562992E+00   -7.14582541E-02    4.47247647E-02   -5.00656507E+00   -2.69032495E+01   -4.97859351E+00   
                   1.55000000E+02    1.00000000E+01    3.65440913E-01    3.87347368E-01   -6.25132156E-02    3.41580243E-02   -1.08930268E+01   -2.83657796E+01   -1.08159982E+01   
                   1.60000000E+02    1.00000000E+01    2.20527217E-01   -5.77974885E-02   -5.11550465E-02    2.37931057E-02   -1.82620987E+01   -3.03915610E+01   -1.80039518E+01   
                   1.65000000E+02    1.00000000E+01   -1.78575241E-02   -2.09689176E-01   -3.85113026E-02    1.46682262E-02   -1.89569561E+01   -3.31197740E+01   -1.87935358E+01   
                   1.70000000E+02    1.00000000E+01   -1.56369664E-01   -1.40607685E-01   -2.52676639E-02    7.30828067E-03   -1.89634769E+01   -3.70196414E+01   -1.88960564E+01   
                   1.75000000E+02    1.00000000E+01   -1.22718208E-01   -2.34232706E-02   -1.17674314E-02    2.11847339E-03   -2.34862739E+01   -4.38677034E+01   -2.34466771E+01   
                   1.80000000E+02    1.00000000E+01    9.72814527E-03   -1.42956748E-03    1.80258093E-03   -3.04844262E-04   -4.55664724E+01   -6.01794993E+01   -4.54188742E+01   
                   0.00000000E+00    1.50000000E+01    9.57309079E-03   -1.54932646E-03   -2.49415736E-03    1.70502801E-04   -4.56865270E+01   -5.74611348E+01   -4.54070944E+01   
                   5.00000000E+00    1.50000000E+01   -1.20551581E-01   -2.29867319E-02    1.73472235E-02   -3.29358349E-03   -2.36413008E+01   -4.04814631E+01   -2.35523169E+01   
                   1.00000000E+01    1.50000000E+01   -1.56765798E-01   -1.41103242E-01    3.68030662E-02   -1.05160426E-02   -1.89376616E+01   -3.37613272E+01   -1.87969394E+01   
                   1.50000000E+01    1.50000000E+01   -2.57047367E-02   -2.20727557E-01    5.53817129E-02   -2.03216824E-02   -1.84842271E+01   -3.00039367E+01   -1.81884658E+01   
                   2.00000000E+01    1.50000000E+01    2.09575959E-01   -9.43546209E-02    7.24262991E-02   -3.17239651E-02   -1.81914751E+01   -2.74596851E+01   -1.77056863E+01   
                   2.50000000E+01    1.50000000E+01    3.68189006E-01    3.16455821E-01    8.69010314E-02   -4.35917385E-02   -1.16961273E+01   -2.56646096E+01   -1.15253735E+01   
                   3.00000000E+01    1.50000000E+01    2.55889206E-01    9.29988651E-01    9.73406694E-02   -5.42985209E-02   -5.73335826E+00   -2.44774081E+01   -5.67574855E+00   
                   3.50000000E+01    1.50000000E+01   -2.12647046E-01    1.52930160E+00    1.02007125E-01   -6.16188192E-02   -1.64683003E+00   -2.38962633E+01   -1.62103414E+00   
                   4.00000000E+01    1.50000000E+01   -9.49540846E-01    1.86314477E+00    9.92580912E-02   -6.30515639E-02    9.87871425E-01   -2.40123705E+01    1.00158259E+00   
                   4.50000000E+01    1.50000000E+01   -1.72068910E+00    1.75867035E+00    8.80674238E-02   -5.65610684E-02    2.40034345E+00   -2.50237261E+01    2.40819553E+00   
                   5.00000000E+01    1.50000000E+01   -2.24115881E+00    1.18505716E+00    6.85750704E-02   -4.14985843E-02    2.66032652E+00   -2.73413499E+01    2.66466562E+00   
                   5.50000000E+01    1.50000000E+01   -2.28458824E+00    2.45969083E-01    4.25095500E-02   -1.93131143E-02    1.80635103E+00   -3.20351791E+01    1.80814387E+00   
                   6.00000000E+01    1.50000000E+01   -1.75765351E+00   -8.79383811E-01    1.33140391E-02    6.32638701E-03    4.49006739E-01   -4.20495264E+01    4.49251036E-01   
                   6.50000000E+01    1.50000000E+01   -7.19055266E-01   -2.00719343E+00   -1.41870167E-02    3.01791992E-02    1.15630619E+00   -3.49585954E+01    1.15736847E+00   
                   7.00000000E+01    1.50000000E+01    6.49102974E-01   -2.99923942E+00   -3.46837384E-02    4.67369548E-02    4.31916039E+00   -3.01213175E+01    4.32072231E+00   
                   7.50000000E+01    1.50000000E+01    2.09554296E+00   -3.77988015E+00   -4.37661031E-02    5.18033603E-02    7.29362833E+00   -2.87931694E+01    7.29469751E+00   
                   8.00000000E+01    1.50000000E+01    3.35839032E+00   -4.32596073E+00   -3.94399886E-02    4.38389928E-02    9.35029875E+00   -3.00073510E+01    9.35080224E+00   
                   8.50000000E+01    1.50000000E+01    4.21496773E+00   -4.64406113E+00   -2.31679948E-02    2.46072781E-02    1.05277390E+01   -3.48421567E+01    1.05278651E+01   
                   9.00000000E+01    1.50000000E+01    4.51762090E+00   -4.74806682E+00    1.53989919E-04   -1.13607608E-03    1.09100787E+01   -6.42326448E+01    1.09100789E+01   
                   9.50000000E+01    1.50000000E+01    4.21482958E+00   -4.64426632E+00    2.34832767E-02   -2.68622856E-02    1.05278209E+01   -3.43714168E+01    1.05279614E+01   
                   1.00000000E+02    1.50000000E+01    3.35814188E+00   -4.32629231E+00    3.97751924E-02   -4.60413686E-02    9.35047254E+00   -2.97356442E+01    9.35100852E+00   
                   1.05000000E+02    1.50000000E+01    2.09523402E+00   -3.78020225E+00    4.41283778E-02   -5.39151344E-02    7.29389348E+00   -2.85587232E+01    7.29502189E+00   
                   1.10000000E+02    1.50000000E+01    6.48795538E-01   -2.99939653E+00    3.50726764E-02   -4.87190606E-02    4.31941101E+00   -2.98524467E+01    4.32107257E+00   
                   1.15000000E+02    1.50000000E+01   -7.19297585E-01   -2.00705320E+00    1.45946399E-02   -3.19955074E-02    1.15610137E+00   -3.44971602E+01    1.15728278E+00   
                   1.20000000E+02    1.50000000E+01   -1.75777497E+00   -8.78873615E-01   -1.29011430E-02   -7.94878255E-03    4.48478199E-01   -4.18097131E+01    4.48736396E-01   
                   1.25000000E+02    1.50000000E+01   -2.28454908E+00    2.46841691E-01   -4.21066652E-02    1.79008616E-02    1.80655757E+00   -3.22113128E+01    1.80827909E+00   
                   1.30000000E+02    1.50000000E+01   -2.24094250E+00    1.18620574E+00   -6.81956259E-02    4.02997498E-02    2.66151160E+00   -2.74439212E+01    2.66574831E+00   
                   1.35000000E+02    1.50000000E+01   -1.72030840E+00    1.75995231E+00   -8.77202502E-02    5.55677687E-02    2.40263905E+00   -2.50926174E+01    2.41036359E+00   
                   1.40000000E+02    1.50000000E+01   -9.49040266E-01    1.86439914E+00   -9.89461493E-02    6.22480064E-02    9.91569622E-01   -2.40637145E+01    1.00510838E+00   
                   1.45000000E+02    1.50000000E+01   -2.12098067E-01    1.53039074E+00   -1.01727583E-01    6.09840451E-02   -1.64118773E+00   -2.39376738E+01   -1.61566899E+00   
                   1.50000000E+02    1.50000000E+01    2.56402370E-01    9.30830912E-01   -9.70861384E-02    5.38074024E-02   -5.72482328E+00   -2.45134164E+01   -5.66779759E+00   
                   1.55000000E+02    1.50000000E+01    3.68591077E-01    3.17038925E-01   -8.66620358E-02    4.32145901E-02   -1.16838802E+01   -2.56988461E+01   -1.15149094E+01   
                   1.60000000E+02    1.50000000E+01    2.09822848E-01   -9.39833308E-02   -7.21950107E-02    3.14266397E-02   -1.81887122E+01   -2.74961160E+01   -1.77070545E+01   
                   1.65000000E+02    1.50000000E+01   -2.56123624E-02   -2.20489383E-01   -5.51560546E-02    2.00683104E-02   -1.84938968E+01   -3.00480593E+01   -1.82003953E+01   
                   1.70000000E+02    1.50000000E+01   -1.56784547E-01   -1.40923267E-01   -3.65891798E-02    1.02751118E-02   -1.89420451E+01   -3.38231476E+01   -1.88031425E+01   
                   1.75000000E+02    1.50000000E+01   -1.20613379E-01   -2.28216978E-02   -1.71582089E-02    3.04548160E-03   -2.36391837E+01   -4.05957111E+01   -2.35525291E+01   
                   1.80000000E+02    1.50000000E+01    9.53402146E-03   -1.39755862E-03    2.64358529E-03   -4.28279259E-04   -4.57420066E+01   -5.68634776E+01   -4.54188742E+01   
                   0.00000000E+00    2.00000000E+01    9.31928215E-03   -1.52857050E-03   -3.31901617E-03    3.04886684E-04   -4.59169152E+01   -5.49631791E+01   -4.54070944E+01   
                   5.00000000E+00    2.00000000E+01   -1.17690462E-01   -2.21073440E-02    2.20898966E-02   -4.02277232E-03   -2.38544353E+01   -3.83942948E+01   -2.37043723E+01   
                   1.00000000E+01    2.00000000E+01   -1.57463590E-01   -1.41035007E-01    4.65410541E-02   -1.26812087E-02   -1.89181787E+01   -3.17521150E+01   -1.86977231E+01   
                   1.50000000E+01    2.00000000E+01   -3.70050127E-02   -2.33899906E-01    6.90281796E-02   -2.36418902E-02   -1.79318933E+01   -2.81576194E+01   -1.75380090E+01   
                   2.00000000E+01    2.00000000E+01    1.92842655E-01   -1.40924015E-01    8.84564708E-02   -3.50353124E-02   -1.78574659E+01   -2.58524048E+01   -1.72178528E+01   
                   2.50000000E+01    2.00000000E+01    3.68888736E-01    2.23231734E-01    1.03473878E-01   -4.49510762E-02   -1.27268020E+01   -2.43724486E+01   -1.24392203E+01   
                   3.00000000E+01    2.00000000E+01    3.04755656E-01    8.00174910E-01    1.12550600E-01   -5.13409257E-02   -6.76789673E+00   -2.35719444E+01   -6.67817743E+00   
                   3.50000000E+01    2.00000000E+01   -9.86015629E-02    1.40200573E+00    1.14242633E-01   -5.22856203E-02   -2.46343636E+00   -2.34373687E+01   -2.42886937E+00   
                   4.00000000E+01    2.00000000E+01   -7.87491113E-01    1.79652080E+00    1.07521055E-01   -4.66306889E-02    4.32072134E-01   -2.40415107E+01    4.47547895E-01   
                   4.50000000E+01    2.00000000E+01   -1.56865824E+00    1.81024497E+00    9.20736366E-02   -3.46828727E-02    2.16749980E+00   -2.55609018E+01    2.17482092E+00   
                   5.00000000E+01    2.00000000E+01   -2.18681452E+00    1.39422934E+00    6.85714961E-02   -1.84977282E-02    2.85773001E+00   -2.83919233E+01    2.86098580E+00   
                   5.50000000E+01    2.00000000E+01   -2.42210794E+00    6.27557083E-01    3.89450882E-02   -1.43735817E-03    2.54618491E+00   -3.36048945E+01    2.54723839E+00   
                   6.00000000E+01    2.00000000E+01   -2.16343898E+00   -3.29970120E-01    6.62685817E-03    1.29104796E-02    1.38290435E+00   -4.21853644E+01    1.38309531E+00   
                   6.50000000E+01    2.00000000E+01   -1.43520003E+00   -1.30365297E+00   -2.34824050E-02    2.19488238E-02    3.31221590E-01   -3.52781245E+01    3.32415001E-01   