##File Type: Far field
##File Format: 5
##Source: Yagi_6_element_V0_1_NoPanel
##Date: 2018-08-01 09:05:48
** File exported by POSTFEKO version 2018-319328 (x64)

#Configuration Name: StandardConfiguration1
#Request Name: Yagi_FarField
#Frequency: 5.80000000E+09
#Coordinate System: Spherical
#No. of Theta Samples: 37
#No. of Phi Samples: 73
#Result Type: Directivity
#No. of Header Lines: 1
#                 "Theta"           "Phi"             "Re(Etheta)"      "Im(Etheta)"      "Re(Ephi)"        "Im(Ephi)"        "Directivity(Theta)""Directivity(Phi)""Directivity(Total)"
                   0.00000000E+00    0.00000000E+00    3.26352758E-05    2.80725149E-05    3.27102625E-05    5.93465017E-04   -7.99690266E+01   -5.71670031E+01   -5.71442812E+01   
                   5.00000000E+00    0.00000000E+00   -3.30728411E-02    1.15160471E-02    3.28613481E-05    5.92149407E-04   -2.17616439E+01   -5.71860988E+01   -2.17603986E+01   
                   1.00000000E+01    0.00000000E+00   -6.62562509E-02    2.30558989E-02    3.30692226E-05    5.88190316E-04   -1.57271349E+01   -5.72440157E+01   -1.57268287E+01   
                   1.50000000E+01    0.00000000E+00   -9.95767349E-02    3.46918040E-02    3.33038961E-05    5.81432277E-04   -1.21874033E+01   -5.73438710E+01   -1.21872709E+01   
                   2.00000000E+01    0.00000000E+00   -1.33056153E-01    4.64520416E-02    3.35186640E-05    5.71630413E-04   -9.66790795E+00   -5.74908659E+01   -9.66783625E+00   
                   2.50000000E+01    0.00000000E+00   -1.66662218E-01    5.83417433E-02    3.36524219E-05    5.58470689E-04   -7.70931056E+00   -5.76923306E+01   -7.70926696E+00   
                   3.00000000E+01    0.00000000E+00   -2.00293941E-01    7.03365703E-02    3.36329432E-05    5.41596845E-04   -6.10969542E+00   -5.79578409E+01   -6.10966705E+00   
                   3.50000000E+01    0.00000000E+00   -2.33770439E-01    8.23777500E-02    3.33810988E-05    5.20642519E-04   -4.76394091E+00   -5.82994703E+01   -4.76392167E+00   
                   4.00000000E+01    0.00000000E+00   -2.66824182E-01    9.43689592E-02    3.28159310E-05    4.95266641E-04   -3.61171904E+00   -5.87322727E+01   -3.61170569E+00   
                   4.50000000E+01    0.00000000E+00   -2.99099831E-01    1.06175546E-01    3.18603856E-05    4.65189789E-04   -2.61632028E+00   -5.92751517E+01   -2.61631091E+00   
                   5.00000000E+01    0.00000000E+00   -3.30159583E-01    1.17626525E-01    3.04473890E-05    4.30228920E-04   -1.75463335E+00   -5.99523901E+01   -1.75462677E+00   
                   5.50000000E+01    0.00000000E+00   -3.59495649E-01    1.28519628E-01    2.85258396E-05    3.90327816E-04   -1.01186193E+00   -6.07963554E+01   -1.01185737E+00   
                   6.00000000E+01    0.00000000E+00   -3.86549881E-01    1.38629463E-01    2.60659842E-05    3.45580770E-04   -3.78500552E-01   -6.18524500E+01   -3.78497459E-01   
                   6.50000000E+01    0.00000000E+00   -4.10739919E-01    1.47718528E-01    2.30636155E-05    2.96247415E-04    1.51509941E-01   -6.31887445E+01    1.51511954E-01   
                   7.00000000E+01    0.00000000E+00   -4.31490369E-01    1.55550451E-01    1.95425505E-05    2.42757262E-04    5.81962906E-01   -6.49165803E+01    5.81964131E-01   
                   7.50000000E+01    0.00000000E+00   -4.48266821E-01    1.61904529E-01    1.55549710E-05    1.85703295E-04    9.15167159E-01   -6.72413226E+01    9.15167823E-01   
                   8.00000000E+01    0.00000000E+00   -4.60609868E-01    1.66590316E-01    1.11794084E-05    1.25824813E-04    1.15247285E+00   -7.06186041E+01    1.15247314E+00   
                   8.50000000E+01    0.00000000E+00   -4.68166017E-01    1.69460927E-01    6.51641344E-06    6.39805785E-05    1.29462348E+00   -7.64822969E+01    1.29462355E+00   
                   9.00000000E+01    0.00000000E+00   -4.70712421E-01    1.70423696E-01    1.68224499E-06    1.11401452E-06    1.34198140E+00   -1.06551093E+02    1.34198140E+00   
                   9.50000000E+01    0.00000000E+00   -4.68172881E-01    1.69447077E-01   -3.19882866E-06   -6.17871998E-05    1.29465384E+00   -7.68184840E+01    1.29465391E+00   
                   1.00000000E+02    0.00000000E+00   -4.60623377E-01    1.66563023E-01   -8.00283405E-06   -1.23734432E-04    1.15253353E+00   -7.07801383E+01    1.15253381E+00   
                   1.05000000E+02    0.00000000E+00   -4.48286559E-01    1.61864587E-01   -1.26141431E-05   -1.83781401E-04    9.15258247E-01   -6.73416365E+01    9.15258895E-01   
                   1.10000000E+02    0.00000000E+00   -4.31515759E-01    1.55499012E-01   -1.69324621E-05   -2.41064587E-04    5.82084942E-01   -6.49840367E+01    5.82086148E-01   
                   1.15000000E+02    0.00000000E+00   -4.10770274E-01    1.47657051E-01   -2.08781162E-05   -2.94838064E-04    1.51664452E-01   -6.32346855E+01    1.51666444E-01   
                   1.20000000E+02    0.00000000E+00   -3.86584462E-01    1.38559659E-01   -2.43952339E-05   -3.44500437E-04   -3.78310328E-01   -6.18825602E+01   -3.78307256E-01   
                   1.25000000E+02    0.00000000E+00   -3.59533718E-01    1.28443390E-01   -2.74527133E-05   -3.89612125E-04   -1.01163003E+00   -6.08139212E+01   -1.01162549E+00   
                   1.30000000E+02    0.00000000E+00   -3.30200461E-01    1.17545858E-01   -3.00431188E-05   -4.29901983E-04   -1.75434971E+00   -5.99595321E+01   -1.75434314E+00   
                   1.35000000E+02    0.00000000E+00   -2.99142933E-01    1.06092490E-01   -3.21798677E-05   -4.65263037E-04   -2.61596870E+00   -5.92733820E+01   -2.61595932E+00   
                   1.40000000E+02    0.00000000E+00   -2.66869053E-01    9.42855209E-02   -3.38931983E-05   -4.95737997E-04   -3.61127413E+00   -5.87227819E+01   -3.61126074E+00   
                   1.45000000E+02    0.00000000E+00   -2.33816766E-01    8.22958392E-02   -3.52254638E-05   -5.21495985E-04   -4.76336315E+00   -5.82832898E+01   -4.76334384E+00   
                   1.50000000E+02    0.00000000E+00   -2.00341558E-01    7.02579422E-02   -3.62262631E-05   -5.42802542E-04   -6.10892239E+00   -5.79359406E+01   -6.10889388E+00   
                   1.55000000E+02    0.00000000E+00   -1.66711092E-01    5.82679522E-02   -3.69478344E-05   -5.59985397E-04   -7.70823977E+00   -5.76656797E+01   -7.70819591E+00   
                   1.60000000E+02    0.00000000E+00   -1.33106370E-01    4.63844046E-02   -3.74410091E-05   -5.73398630E-04   -9.66635870E+00   -5.74604687E+01   -9.66628653E+00   
                   1.65000000E+02    0.00000000E+00   -9.96284636E-02    3.46313754E-02   -3.77518907E-05   -5.83387777E-04   -1.21850154E+01   -5.73107842E+01   -1.21848819E+01   
                   1.70000000E+02    0.00000000E+00   -6.63097166E-02    2.30034535E-02   -3.79193015E-05   -5.90258168E-04   -1.57230140E+01   -5.72093525E+01   -1.57227055E+01   
                   1.75000000E+02    0.00000000E+00   -3.31282860E-02    1.14720733E-02   -3.79729514E-05   -5.94248390E-04   -2.17522359E+01   -5.71510214E+01   -2.17509833E+01   
                   1.80000000E+02    0.00000000E+00   -2.50127154E-05   -7.22497193E-06   -3.79322361E-05   -5.95510332E-04   -8.43368319E+01   -5.71327081E+01   -5.71244485E+01   
                   0.00000000E+00    5.00000000E+00    3.53619760E-05    7.96895748E-05    2.97414383E-05    5.88760023E-04   -7.38394303E+01   -5.72382447E+01   -5.71442812E+01   
                   5.00000000E+00    5.00000000E+00   -3.23349208E-02    1.10737831E-02   -2.07824792E-05    5.89725582E-04   -2.19729972E+01   -5.72296895E+01   -2.19717028E+01   
                   1.00000000E+01    5.00000000E+00   -6.32199973E-02    2.12093375E-02   -7.06873659E-05    5.86227639E-04   -1.61677946E+01   -5.72240635E+01   -1.61674540E+01   
                   1.50000000E+01    5.00000000E+00   -9.25762153E-02    3.06591578E-02   -1.19120170E-04    5.78197061E-04   -1.28661189E+01   -5.72260332E+01   -1.28659598E+01   
                   2.00000000E+01    5.00000000E+00   -1.20362259E-01    3.95947545E-02   -1.65131823E-04    5.65564654E-04   -1.05920253E+01   -5.72431339E+01   -1.05919314E+01   
                   2.50000000E+01    5.00000000E+00   -1.46533306E-01    4.81743695E-02   -2.07646318E-04    5.48282927E-04   -8.88362732E+00   -5.72858901E+01   -8.88356458E+00   
                   3.00000000E+01    5.00000000E+00   -1.71038197E-01    5.65314749E-02   -2.45454436E-04    5.26352313E-04   -7.53594922E+00   -5.73679848E+01   -7.53590408E+00   
                   3.50000000E+01    5.00000000E+00   -1.93819376E-01    6.47640519E-02   -2.77237556E-04    4.99846888E-04   -6.44043964E+00   -5.75064871E+01   -6.44040566E+00   
                   4.00000000E+01    5.00000000E+00   -2.14815067E-01    7.29252438E-02   -3.01623817E-04    4.68934388E-04   -5.53307718E+00   -5.77222018E+01   -5.53305094E+00   
                   4.50000000E+01    5.00000000E+00   -2.33962917E-01    8.10162546E-02   -3.17275014E-04    4.33886016E-04   -4.77331287E+00   -5.80402954E+01   -4.77329240E+00   
                   5.00000000E+01    5.00000000E+00   -2.51204242E-01    8.89825489E-02   -3.22998201E-04    3.95073082E-04   -4.13418287E+00   -5.84914930E+01   -4.13416694E+00   
                   5.50000000E+01    5.00000000E+00   -2.66487991E-01    9.67144006E-02   -3.17871625E-04    3.52949864E-04   -3.59716516E+00   -5.91143807E+01   -3.59715297E+00   
                   6.00000000E+01    5.00000000E+00   -2.79773687E-01    1.04052592E-01   -3.01370967E-04    3.08024723E-04   -3.14928956E+00   -5.99598738E+01   -3.14928051E+00   
                   6.50000000E+01    5.00000000E+00   -2.91032840E-01    1.10799547E-01   -2.73479643E-04    2.60824028E-04   -2.78140721E+00   -6.11001801E+01   -2.78140081E+00   
                   7.00000000E+01    5.00000000E+00   -3.00248644E-01    1.16735475E-01   -2.34766829E-04    2.11855226E-04   -2.48709235E+00   -6.26481616E+01   -2.48708816E+00   
                   7.50000000E+01    5.00000000E+00   -3.07414092E-01    1.21638250E-01   -1.86419206E-04    1.61575972E-04   -2.26190583E+00   -6.48048371E+01   -2.26190341E+00   
                   8.00000000E+01    5.00000000E+00   -3.12528991E-01    1.25305039E-01   -1.30217189E-04    1.10375350E-04   -2.10287846E+00   -6.80032978E+01   -2.10287734E+00   
                   8.50000000E+01    5.00000000E+00   -3.15596506E-01    1.27573118E-01   -6.84530760E-05    5.85709367E-05   -2.00814214E+00   -7.35544564E+01   -2.00814184E+00   
                   9.00000000E+01    5.00000000E+00   -3.16620002E-01    1.28337214E-01   -3.79621298E-06    6.42225298E-06   -1.97667600E+00   -9.51929151E+01   -1.97667600E+00   
                   9.50000000E+01    5.00000000E+00   -3.15600834E-01    1.27561002E-01    6.08823553E-05   -4.58423649E-05   -2.00815562E+00   -7.50076758E+01   -2.00815541E+00   
                   1.00000000E+02    5.00000000E+00   -3.12537562E-01    1.25281123E-01    1.22707408E-04   -9.79913662E-05   -2.10290280E+00   -6.87282513E+01   -2.10290186E+00   
                   1.05000000E+02    5.00000000E+00   -3.07426750E-01    1.21603156E-01    1.78997643E-04   -1.49755651E-04   -2.26193578E+00   -6.52867517E+01   -2.26193361E+00   
                   1.10000000E+02    5.00000000E+00   -3.00265180E-01    1.16690110E-01    2.27442646E-04   -2.00801899E-04   -2.48711993E+00   -6.30077676E+01   -2.48711608E+00   
                   1.15000000E+02    5.00000000E+00   -2.91053021E-01    1.10745075E-01    2.66240181E-04   -2.50719515E-04   -2.78142161E+00   -6.13853325E+01   -2.78141562E+00   
                   1.20000000E+02    5.00000000E+00   -2.79797278E-01    1.03990393E-01    2.94180959E-04   -2.99024188E-04   -3.14927685E+00   -6.01939914E+01   -3.14926827E+00   
                   1.25000000E+02    5.00000000E+00   -2.66514784E-01    9.66460328E-02    3.10675429E-04   -3.45177582E-04   -3.59710782E+00   -5.93102465E+01   -3.59709616E+00   
                   1.30000000E+02    5.00000000E+00   -2.51234071E-01    8.89096930E-02    3.15724752E-04   -3.88619396E-04   -4.13405896E+00   -5.86564119E+01   -4.13404362E+00   
                   1.35000000E+02    5.00000000E+00   -2.33995664E-01    8.09406637E-02    3.09844880E-04   -4.28805749E-04   -4.77309457E+00   -5.81783881E+01   -4.77307474E+00   
                   1.40000000E+02    5.00000000E+00   -2.14850663E-01    7.28486882E-02    2.93957502E-04   -4.65246883E-04   -5.53272827E+00   -5.78355786E+01   -5.53270271E+00   
                   1.45000000E+02    5.00000000E+00   -1.93857793E-01    6.46882650E-02    2.69264103E-04   -4.97537758E-04   -6.43991108E+00   -5.75959418E+01   -6.43987780E+00   
                   1.50000000E+02    5.00000000E+00   -1.71079430E-01    5.64580999E-02    2.37119343E-04   -5.25376859E-04   -7.53517089E+00   -5.74334760E+01   -7.53512643E+00   
                   1.55000000E+02    5.00000000E+00   -1.46577355E-01    4.81049100E-02    1.98917918E-04   -5.48571013E-04   -8.88249144E+00   -5.73269272E+01   -8.88242930E+00   
                   1.60000000E+02    5.00000000E+00   -1.20409107E-01    3.95305296E-02    1.56005451E-04   -5.67026749E-04   -1.05903491E+01   -5.72591130E+01   -1.05902556E+01   
                   1.65000000E+02    5.00000000E+00   -9.26258085E-02    3.06012628E-02    1.09619718E-04   -5.80731014E-04   -1.28635450E+01   -5.72165286E+01   -1.28633856E+01   
                   1.70000000E+02    5.00000000E+00   -6.32722339E-02    2.11586125E-02    6.08641034E-05   -5.89725707E-04   -1.61634423E+01   -5.71890625E+01   -1.61630993E+01   
                   1.75000000E+02    5.00000000E+00   -3.23896387E-02    1.10307910E-02    1.07113034E-05   -5.94081219E-04   -2.19633742E+01   -5.71697511E+01   -2.19620648E+01   
                   1.80000000E+02    5.00000000E+00   -2.16115223E-05    4.47046666E-05   -3.99678940E-05   -5.93873933E-04   -7.87289144E+01   -5.71545677E+01   -5.71244485E+01   
                   0.00000000E+00    1.00000000E+01    3.78195501E-05    1.30700149E-04    2.65462639E-05    5.79574209E-04   -6.99733470E+01   -5.73767965E+01   -5.71442812E+01   
                   5.00000000E+00    1.00000000E+01   -3.15655016E-02    1.06695549E-02   -7.33031083E-05    5.81070376E-04   -2.21939875E+01   -5.72949338E+01   -2.21926459E+01   
                   1.00000000E+01    1.00000000E+01   -5.98729871E-02    1.96699290E-02   -1.71875484E-04    5.72815566E-04   -1.66583359E+01   -5.71133893E+01   -1.66579448E+01   
                   1.50000000E+01    1.00000000E+01   -8.45351182E-02    2.76903919E-02   -2.66894125E-04    5.55094340E-04   -1.36646982E+01   -5.68575386E+01   -1.36644900E+01   
                   2.00000000E+01    1.00000000E+01   -1.05316123E-01    3.53171435E-02   -3.55980606E-04    5.28515877E-04   -1.17353547E+01   -5.65622709E+01   -1.17352118E+01   
                   2.50000000E+01    1.00000000E+01   -1.22105300E-01    4.31188502E-02   -4.36658093E-04    4.94024194E-04   -1.04030232E+01   -5.62658811E+01   -1.04029106E+01   
                   3.00000000E+01    1.00000000E+01   -1.34924641E-01    5.15991835E-02   -5.06394114E-04    4.52895510E-04   -9.45345102E+00   -5.60058978E+01   -9.45335496E+00   
                   3.50000000E+01    1.00000000E+01   -1.43931332E-01    6.11501067E-02   -5.62686023E-04    4.06711198E-04   -8.76430236E+00   -5.58173424E+01   -8.76421676E+00   
                   4.00000000E+01    1.00000000E+01   -1.49413751E-01    7.20099304E-02   -6.03185139E-04    3.57297058E-04   -8.25318921E+00   -5.57329014E+01   -8.25311162E+00   
                   4.50000000E+01    1.00000000E+01   -1.51780009E-01    8.42308322E-02   -6.25848746E-04    3.06624762E-04   -7.85779895E+00   -5.57843499E+01   -7.85772894E+00   
                   5.00000000E+01    1.00000000E+01   -1.51538827E-01    9.76606187E-02   -6.29103981E-04    2.56678507E-04   -7.52903007E+00   -5.60048974E+01   -7.52896838E+00   
                   5.50000000E+01    1.00000000E+01   -1.49273427E-01    1.11942773E-01   -6.12004840E-04    2.09297522E-04   -7.23057227E+00   -5.64326256E+01   -7.23052008E+00   
                   6.00000000E+01    1.00000000E+01   -1.45610036E-01    1.26537226E-01   -5.74363498E-04    1.66011734E-04   -6.94102119E+00   -5.71158858E+01   -6.94097947E+00   
                   6.50000000E+01    1.00000000E+01   -1.41183234E-01    1.40761923E-01   -5.16839712E-04    1.27891904E-04   -6.65507663E+00   -5.81228606E+01   -6.65504566E+00   
                   7.00000000E+01    1.00000000E+01   -1.36600713E-01    1.53852482E-01   -4.40976628E-04    9.54360799E-05   -6.38156147E+00   -5.95609748E+01   -6.38154059E+00   
                   7.50000000E+01    1.00000000E+01   -1.32409952E-01    1.65034464E-01   -3.49176991E-04    6.85109293E-05   -6.13832756E+00   -6.16231137E+01   -6.13831528E+00   
                   8.00000000E+01    1.00000000E+01   -1.29068875E-01    1.73600558E-01   -2.44619685E-04    4.63598819E-05   -5.94599850E+00   -6.47250009E+01   -5.94599275E+00   
                   8.50000000E+01    1.00000000E+01   -1.26922021E-01    1.78983718E-01   -1.31121889E-04    2.76812147E-05   -5.82262401E+00   -7.01052094E+01   -5.82262239E+00   
                   9.00000000E+01    1.00000000E+01   -1.26183141E-01    1.80817288E-01   -1.29565441E-05    1.07695775E-05   -5.78019073E+00   -8.81171009E+01   -5.78019070E+00   
                   9.50000000E+01    1.00000000E+01   -1.26924652E-01    1.78974505E-01    1.05361982E-04   -6.29437049E-06   -5.82286126E+00   -7.21789285E+01   -5.82286025E+00   
                   1.00000000E+02    1.00000000E+01   -1.29074118E-01    1.73582264E-01    2.19309094E-04   -2.54282943E-05   -5.94646235E+00   -6.57689498E+01   -5.94645783E+00   
                   1.05000000E+02    1.00000000E+01   -1.32417778E-01    1.65007361E-01    3.24582068E-04   -4.83322353E-05   -6.13899430E+00   -6.23263446E+01   -6.13898385E+00   
                   1.10000000E+02    1.00000000E+01   -1.36611104E-01    1.53816992E-01    4.17317005E-04   -7.62982057E-05   -6.38239058E+00   -6.00959598E+01   -6.38237211E+00   
                   1.15000000E+02    1.00000000E+01   -1.41196203E-01    1.40718630E-01    4.94275434E-04   -1.10067614E-04   -6.65600812E+00   -5.85585080E+01   -6.65598010E+00   
                   1.20000000E+02    1.00000000E+01   -1.45625651E-01    1.26486889E-01    5.52987296E-04   -1.49752157E-04   -6.94197696E+00   -5.74864200E+01   -6.94193865E+00   
                   1.25000000E+02    1.00000000E+01   -1.49291816E-01    1.11886338E-01    5.91840114E-04   -1.94825001E-04   -7.23146327E+00   -5.67571714E+01   -7.23141483E+00   
                   1.30000000E+02    1.00000000E+01   -1.51560183E-01    9.75992133E-02    6.10108503E-04   -2.44179431E-04   -7.52976734E+00   -5.62946898E+01   -7.52970963E+00   
                   1.35000000E+02    1.00000000E+01   -1.51804574E-01    8.41657560E-02    6.07923540E-04   -2.96243239E-04   -7.85830362E+00   -5.60457719E+01   -7.85823769E+00   
                   1.40000000E+02    1.00000000E+01   -1.49441786E-01    7.19426283E-02    5.86187467E-04   -3.49130330E-04   -8.25339599E+00   -5.59688101E+01   -8.25332250E+00   
                   1.45000000E+02    1.00000000E+01   -1.43963083E-01    6.10821276E-02    5.46445002E-04   -4.00807621E-04   -8.76415463E+00   -5.60275980E+01   -8.76407308E+00   
                   1.50000000E+02    1.00000000E+01   -1.34960296E-01    5.15321238E-02    4.90727216E-04   -4.49255645E-04   -9.45288770E+00   -5.61875350E+01   -9.45279559E+00   
                   1.55000000E+02    1.00000000E+01   -1.22144945E-01    4.30542861E-02    4.21386735E-04   -4.92605190E-04   -1.04019564E+01   -5.64132432E+01   -1.04018476E+01   
                   1.60000000E+02    1.00000000E+01   -1.05359711E-01    3.52565544E-02    3.40943177E-04   -5.29238877E-04   -1.17336279E+01   -5.66674435E+01   -1.17334885E+01   
                   1.65000000E+02    1.00000000E+01   -8.45824482E-02    2.76350827E-02    2.51955180E-04   -5.57854241E-04   -1.36619854E+01   -5.69114420E+01   -1.36617799E+01   
                   1.70000000E+02    1.00000000E+01   -5.99237013E-02    1.96209562E-02    1.56930357E-04   -5.77492116E-04   -1.66537990E+01   -5.71077415E+01   -1.66534078E+01   
                   1.75000000E+02    1.00000000E+01   -3.16190986E-02    1.06276665E-02    5.82778117E-05   -5.87539407E-04   -2.21842409E+01   -5.72248195E+01   -2.21828806E+01   
                   1.80000000E+02    1.00000000E+01   -1.80458525E-05    9.62940756E-05   -4.16993721E-05   -5.87717795E-04   -7.28261804E+01   -5.72428944E+01   -5.71244485E+01   
                   0.00000000E+00    1.50000000E+01    3.99892947E-05    1.80716016E-04    2.31490564E-05    5.65977486E-04   -6.73005324E+01   -5.75848368E+01   -5.71442812E+01   
                   5.00000000E+00    1.50000000E+01   -3.07735639E-02    1.03069689E-02   -1.23080934E-04    5.66354224E-04   -2.24227816E+01   -5.73859012E+01   -2.24213968E+01   
                   1.00000000E+01    1.50000000E+01   -5.62839283E-02    1.84696301E-02   -2.66759594E-04    5.48642808E-04   -1.71962358E+01   -5.69406701E+01   -1.71957752E+01   
                   1.50000000E+01    1.50000000E+01   -7.57238541E-02    2.59158008E-02   -4.03226152E-04    5.13877487E-04   -1.45823923E+01   -5.63472456E+01   -1.45821031E+01   
                   2.00000000E+01    1.50000000E+01   -8.86835496E-02    3.39704460E-02   -5.27961676E-04    4.64068300E-04   -1.30966093E+01   -5.57099050E+01   -1.30963714E+01   
                   2.50000000E+01    1.50000000E+01   -9.51360284E-02    4.39030349E-02   -6.36753266E-04    4.02116342E-04   -1.22427122E+01   -5.51110824E+01   -1.22424879E+01   
                   3.00000000E+01    1.50000000E+01   -9.54293176E-02    5.67922745E-02   -7.25873965E-04    3.31665532E-04   -1.17377028E+01   -5.46074005E+01   -1.17374785E+01   
                   3.50000000E+01    1.50000000E+01   -9.02461382E-02    7.34031402E-02   -7.92263996E-04    2.56886137E-04   -1.13343352E+01   -5.42365330E+01   -1.13341126E+01   
                   4.00000000E+01    1.50000000E+01   -8.05355828E-02    9.40902161E-02   -8.33691682E-04    1.82195660E-04   -1.07901232E+01   -5.40253513E+01   -1.07899170E+01   
                   4.50000000E+01    1.50000000E+01   -6.74250116E-02    1.18739282E-01   -8.48870520E-04    1.11935612E-04   -9.94242051E+00   -5.39963833E+01   -9.94224976E+00   
                   5.00000000E+01    1.50000000E+01   -5.21230996E-02    1.46755122E-01   -8.37513454E-04    5.00343724E-05   -8.80026633E+00   -5.41727707E+01   -8.80014028E+00   
                   5.50000000E+01    1.50000000E+01   -3.58260460E-02    1.77098180E-01   -8.00315415E-04   -3.07048668E-07   -7.50961034E+00   -5.45828549E+01   -7.50952514E+00   
                   6.00000000E+01    1.50000000E+01   -1.96379943E-02    2.08366770E-01   -7.38867904E-04   -3.68701078E-05   -6.23310389E+00   -5.52659422E+01   -6.23304963E+00   
                   6.50000000E+01    1.50000000E+01   -4.51379608E-03    2.38916114E-01   -6.55521329E-04   -5.85863525E-05   -5.08162043E+00   -5.62817905E+01   -5.08158748E+00   
                   7.00000000E+01    1.50000000E+01    8.77207704E-03    2.67001428E-01   -5.53218849E-04   -6.56022709E-05   -4.11312229E+00   -5.77294951E+01   -4.11310341E+00   
                   7.50000000E+01    1.50000000E+01    1.96315142E-02    2.90930220E-01   -4.35327783E-04   -5.92406419E-05   -3.35257245E+00   -5.97920621E+01   -3.35256259E+00   
                   8.00000000E+01    1.50000000E+01    2.76490366E-02    3.09208940E-01   -3.05491028E-04   -4.18700793E-05   -2.80845156E+00   -6.28672846E+01   -2.80844728E+00   
                   8.50000000E+01    1.50000000E+01    3.25567510E-02    3.20670799E-01   -1.67512849E-04   -1.67021442E-05   -2.48235409E+00   -6.81241548E+01   -2.48235290E+00   
                   9.00000000E+01    1.50000000E+01    3.42074813E-02    3.24574309E-01   -2.52829857E-05    1.24623309E-05   -2.37382328E+00   -8.36469266E+01   -2.37382325E+00   
                   9.50000000E+01    1.50000000E+01    3.25546618E-02    3.20665233E-01    1.17267203E-04    4.15179416E-05   -2.48250901E+00   -7.07516782E+01   -2.48250836E+00   
                   1.00000000E+02    1.50000000E+01    2.76449206E-02    3.09197705E-01    2.56190832E-04    6.63541763E-05   -2.80877492E+00   -6.41948274E+01   -2.80877177E+00   
                   1.05000000E+02    1.50000000E+01    1.96254716E-02    2.90913138E-01    3.87552437E-04    8.31559009E-05   -3.35309226E+00   -6.06859912E+01   -3.35308423E+00   
                   1.10000000E+02    1.50000000E+01    8.76420267E-03    2.66978294E-01    5.07474385E-04    8.86909716E-05   -4.11388250E+00   -5.84091299E+01   -4.11386634E+00   
                   1.15000000E+02    1.50000000E+01   -4.52346461E-03    2.38886762E-01    6.12216984E-04    8.05683013E-05   -5.08268055E+00   -5.68354010E+01   -5.08265154E+00   
                   1.20000000E+02    1.50000000E+01   -1.96495254E-02    2.08331152E-01    6.98298453E-04    5.74459618E-05   -6.23453075E+00   -5.57379651E+01   -6.23448206E+00   
                   1.25000000E+02    1.50000000E+01   -3.58396467E-02    1.77056441E-01    7.62650588E-04    1.91668723E-05   -7.51144745E+00   -5.49988248E+01   -7.51137000E+00   
                   1.30000000E+02    1.50000000E+01   -5.21391235E-02    1.46707669E-01    8.02795369E-04   -3.31981583E-05   -8.80246129E+00   -5.45485615E+01   -8.80234564E+00   
                   1.35000000E+02    1.50000000E+01   -6.74439363E-02    1.18686828E-01    8.17019461E-04   -9.74125069E-05   -9.94472746E+00   -5.43421283E+01   -9.94456969E+00   
                   1.40000000E+02    1.50000000E+01   -8.05579580E-02    9.40337993E-02    8.04519796E-04   -1.70240761E-04   -1.07921080E+01   -5.43471090E+01   -1.07919165E+01   
                   1.45000000E+02    1.50000000E+01   -9.02725107E-02    7.33441024E-02    7.65495611E-04   -2.47705602E-04   -1.13355880E+01   -5.45367440E+01   -1.13353802E+01   
                   1.50000000E+02    1.50000000E+01   -9.54601444E-02    5.67322038E-02    7.01170412E-04   -3.25406028E-04   -1.17380320E+01   -5.48844891E+01   -1.17378216E+01   
                   1.55000000E+02    1.50000000E+01   -9.51715911E-02    4.38436700E-02    6.13739464E-04   -3.98860064E-04   -1.22420956E+01   -5.53583319E+01   -1.22418837E+01   
                   1.60000000E+02    1.50000000E+01   -8.87238860E-02    3.39135533E-02    5.06251501E-04   -4.63834244E-04   -1.30950235E+01   -5.59138813E+01   -1.30947965E+01   
                   1.65000000E+02    1.50000000E+01   -7.57687182E-02    2.58630338E-02    3.82443807E-04   -5.16628603E-04   -1.45796376E+01   -5.64868084E+01   -1.45793577E+01   
                   1.70000000E+02    1.50000000E+01   -5.63327884E-02    1.84223904E-02    2.46554869E-04   -5.54297676E-04   -1.71915851E+01   -5.69891854E+01   -1.71911301E+01   
                   1.75000000E+02    1.50000000E+01   -3.08256393E-02    1.02662836E-02    1.03137282E-04   -5.74801169E-04   -2.24130170E+01   -5.73201064E+01   -2.24116141E+01   
                   1.80000000E+02    1.50000000E+01   -1.43428429E-05    1.47150629E-04   -4.31134928E-05   -5.77088770E-04   -6.92517714E+01   -5.73990545E+01   -5.71244485E+01   
                   0.00000000E+00    2.00000000E+01    4.18546965E-05    2.29356525E-04    1.95756705E-05    5.48073332E-04   -6.52955858E+01   -5.78657689E+01   -5.71442812E+01   
                   5.00000000E+00    2.00000000E+01   -2.99689485E-02    9.98827619E-03   -1.68596642E-04    5.45909559E-04   -2.26571935E+01   -5.75100179E+01   -2.26557731E+01   
                   1.00000000E+01    2.00000000E+01   -5.25302348E-02    1.76248878E-02   -3.51942771E-04    5.14977586E-04   -1.77766074E+01   -5.67478505E+01   -1.77760570E+01   
                   1.50000000E+01    2.00000000E+01   -6.64454970E-02    2.53920365E-02   -5.22221702E-04    4.57667025E-04   -1.56067803E+01   -5.58160358E+01   -1.56063665E+01   
                   2.00000000E+01    2.00000000E+01   -7.13137827E-02    3.56676837E-02   -6.71990818E-04    3.78418973E-04   -1.46149837E+01   -5.49045698E+01   -1.46145775E+01   
                   2.50000000E+01    2.00000000E+01   -6.75481262E-02    5.06436654E-02   -7.95107773E-04    2.83349248E-04   -1.41186885E+01   -5.41203331E+01   -1.41182544E+01   
                   3.00000000E+01    2.00000000E+01   -5.62881636E-02    7.20320423E-02   -8.87129879E-04    1.79706312E-04   -1.34275894E+01   -5.35136826E+01   -1.34271637E+01   
                   3.50000000E+01    2.00000000E+01   -3.92225236E-02    1.00831909E-01   -9.45561769E-04    7.52113077E-05   -1.19641868E+01   -5.31068905E+01   -1.19638530E+01   
                   4.00000000E+01    2.00000000E+01   -1.83513823E-02    1.37189529E-01   -9.69914152E-04   -2.26488114E-05   -9.82463640E+00   -5.29110457E+01   -9.82442303E+00   
                   4.50000000E+01    2.00000000E+01    4.27123684E-03    1.80368743E-01   -9.61560606E-04   -1.07288452E-04   -7.52241889E+00   -5.29348121E+01   -7.52229400E+00   
                   5.00000000E+01    2.00000000E+01    2.67742377E-02    2.28829945E-01   -9.23411275E-04   -1.73564100E-04   -5.39876972E+00   -5.31893925E+01   -5.39869749E+00   
                   5.50000000E+01    2.00000000E+01    4.76503884E-02    2.80398460E-01   -8.59454000E-04   -2.18120659E-04   -3.56892378E+00   -5.36925400E+01   -3.56888156E+00   
                   6.00000000E+01    2.00000000E+01    6.58590491E-02    3.32490671E-01   -7.74235808E-04   -2.39510606E-04   -2.04535285E+00   -5.44737053E+01   -2.04532802E+00   
                   6.50000000E+01    2.00000000E+01    8.08440569E-02    3.82361187E-01   -6.72364710E-04   -2.38096080E-04   -8.08669612E-01   -5.55829150E+01   -8.08655145E-01   