##File Type: Far field
##File Format: 5
##Source: Yagi_6_element_V0_0_optimum
##Date: 2018-07-31 16:47:54
** File exported by POSTFEKO version 2018-319328 (x64)

#Configuration Name: StandardConfiguration1
#Request Name: FarField1
#Frequency: 5.80000000E+09
#Coordinate System: Spherical
#No. of Theta Samples: 37
#No. of Phi Samples: 73
#Result Type: Directivity
#No. of Header Lines: 1
#                 "Theta"           "Phi"             "Re(Etheta)"      "Im(Etheta)"      "Re(Ephi)"        "Im(Ephi)"        "Directivity(Theta)""Directivity(Phi)""Directivity(Total)"
                   0.00000000E+00    0.00000000E+00    5.47149529E-05    7.59322613E-05    1.35185001E-04    6.28610767E-04   -7.33066856E+01   -5.65674633E+01   -5.64764088E+01   
                   5.00000000E+00    0.00000000E+00   -8.31668240E-04   -2.05960731E-02    1.35322382E-04    6.27282701E-04   -2.64486822E+01   -5.65846278E+01   -2.64444751E+01   
                   1.00000000E+01    0.00000000E+00   -1.10147373E-02   -2.72166577E-02    1.35458013E-04    6.23296107E-04   -2.33760164E+01   -5.66371360E+01   -2.33739673E+01   
                   1.50000000E+01    0.00000000E+00   -3.69205387E-02   -1.09963037E-02    1.35499041E-04    6.16474060E-04   -2.10169759E+01   -5.67282502E+01   -2.10158102E+01   
                   2.00000000E+01    0.00000000E+00   -8.02359435E-02    2.84382994E-02    1.35297107E-04    6.06536922E-04   -1.41301372E+01   -5.68634096E+01   -1.41299058E+01   
                   2.50000000E+01    0.00000000E+00   -1.37639717E-01    8.32405537E-02    1.34655431E-04    5.93124192E-04   -8.60286398E+00   -5.70502696E+01   -8.60280189E+00   
                   3.00000000E+01    0.00000000E+00   -2.02138893E-01    1.40591558E-01    1.33339082E-04    5.75823775E-04   -4.90484863E+00   -5.72988098E+01   -4.90482360E+00   
                   3.50000000E+01    0.00000000E+00   -2.65415699E-01    1.87449730E-01    1.31088557E-04    5.54207249E-04   -2.49551062E+00   -5.76215766E+01   -2.49549728E+00   
                   4.00000000E+01    0.00000000E+00   -3.20264510E-01    2.14782005E-01    1.27636565E-04    5.27869225E-04   -1.00831712E+00   -5.80341535E+01   -1.00830850E+00   
                   4.50000000E+01    0.00000000E+00   -3.62278160E-01    2.19742826E-01    1.22727521E-04    4.96468397E-04   -1.90018501E-01   -5.85560167E+01   -1.90012174E-01   
                   5.00000000E+01    0.00000000E+00   -3.90359142E-01    2.05364673E-01    1.16138814E-04    4.59767495E-04    1.58975679E-01   -5.92120466E+01    1.58980699E-01   
                   5.50000000E+01    0.00000000E+00   -4.06150900E-01    1.78410555E-01    1.07702368E-04    4.17669130E-04    2.08559289E-01   -6.00352125E+01    2.08563395E-01   
                   6.00000000E+01    0.00000000E+00   -4.12854588E-01    1.46603987E-01    9.73246207E-05    3.70244572E-04    1.00245762E-01   -6.10714954E+01    1.00249078E-01   
                   6.50000000E+01    0.00000000E+00   -4.13987593E-01    1.16359977E-01    8.50027493E-05    3.17752807E-04   -6.14812618E-02   -6.23894822E+01   -6.14787210E-02   
                   7.00000000E+01    0.00000000E+00   -4.12488632E-01    9.16184094E-02    7.08350265E-05    2.60647864E-04   -2.14071384E-01   -6.41009010E+01   -2.14069609E-01   
                   7.50000000E+01    0.00000000E+00   -4.10320145E-01    7.37954990E-02    5.50235137E-05    1.99573271E-04   -3.30738709E-01   -6.64112207E+01   -3.30737639E-01   
                   8.00000000E+01    0.00000000E+00   -4.08500706E-01    6.24894290E-02    3.78680072E-05    1.35343555E-04   -4.07133240E-01   -6.97753654E+01   -4.07132738E-01   
                   8.50000000E+01    0.00000000E+00   -4.07388014E-01    5.64744125E-02    1.97511131E-05    6.89137448E-05   -4.48614454E-01   -7.56224820E+01   -4.48614322E-01   
                   9.00000000E+01    0.00000000E+00   -4.07022130E-01    5.46096769E-02    1.11542648E-06    1.33890119E-06   -4.61602601E-01   -1.07907238E+02   -4.61602600E-01   
                   9.50000000E+01    0.00000000E+00   -4.07385481E-01    5.64452464E-02   -1.75651575E-05   -6.62735066E-05   -4.48751995E-01   -7.60098094E+01   -4.48751874E-01   
                   1.00000000E+02    0.00000000E+00   -4.08498070E-01    6.24315745E-02   -3.58171510E-05   -1.32814950E-04   -4.07371801E-01   -6.99616200E+01   -4.07371320E-01   
                   1.05000000E+02    0.00000000E+00   -4.10322209E-01    7.37103382E-02   -5.31989251E-05   -1.97227189E-04   -3.31010264E-01   -6.65270988E+01   -3.31009222E-01   
                   1.10000000E+02    0.00000000E+00   -4.12502264E-01    9.15089986E-02   -6.93286746E-05   -2.58549904E-04   -2.14285197E-01   -6.41790105E+01   -2.14283454E-01   
                   1.15000000E+02    0.00000000E+00   -4.14020846E-01    1.16231952E-01   -8.39061807E-05   -3.15961213E-04   -6.15339521E-02   -6.24428176E+01   -6.15314422E-02   
                   1.20000000E+02    0.00000000E+00   -4.12914989E-01    1.46466238E-01   -9.67265333E-05   -3.68808258E-04    1.00460865E-01   -6.11065324E+01    1.00464154E-01   
                   1.25000000E+02    0.00000000E+00   -4.06242923E-01    1.78275142E-01   -1.07685056E-04   -4.16625896E-04    2.09143177E-01   -6.00556647E+01    2.09147263E-01   
                   1.30000000E+02    0.00000000E+00   -3.90481400E-01    2.05245498E-01   -1.16773762E-04   -4.59142513E-04    1.60014209E-01   -5.92202896E+01    1.60019218E-01   
                   1.35000000E+02    0.00000000E+00   -3.62421409E-01    2.19652811E-01   -1.24070584E-04   -4.96273056E-04   -1.88464291E-01   -5.85537334E+01   -1.88457963E-01   
                   1.40000000E+02    0.00000000E+00   -3.20411828E-01    2.14729203E-01   -1.29723255E-04   -5.28100396E-04   -1.00622343E+00   -5.80226664E+01   -1.00621480E+00   
                   1.45000000E+02    0.00000000E+00   -2.65545798E-01    1.87433541E-01   -1.33929980E-04   -5.54847025E-04   -2.49291963E+00   -5.76020359E+01   -2.49290624E+00   
                   1.50000000E+02    0.00000000E+00   -2.02232355E-01    1.40600792E-01   -1.36919003E-04   -5.76839685E-04   -4.90195625E+00   -5.72723062E+01   -4.90193109E+00   
                   1.55000000E+02    0.00000000E+00   -1.37686305E-01    8.32549195E-02   -1.38928849E-04   -5.94469899E-04   -8.60031022E+00   -5.70179026E+01   -8.60024770E+00   
                   1.60000000E+02    0.00000000E+00   -8.02399912E-02    2.84338079E-02   -1.40190556E-04   -6.08153390E-04   -1.41299010E+01   -5.68263277E+01   -1.41296676E+01   
                   1.65000000E+02    0.00000000E+00   -3.69015115E-02   -1.10392724E-02   -1.40912704E-04   -6.18291169E-04   -2.10183158E+01   -5.66876696E+01   -2.10171388E+01   
                   1.70000000E+02    0.00000000E+00   -1.10018398E-02   -2.73054911E-02   -1.41269554E-04   -6.25234685E-04   -2.33531074E+01   -5.65943438E+01   -2.33510489E+01   
                   1.75000000E+02    0.00000000E+00   -8.54055953E-04   -2.07216487E-02   -1.41392275E-04   -6.29256932E-04   -2.63955889E+01   -5.65409717E+01   -2.63913909E+01   
                   1.80000000E+02    0.00000000E+00   -2.17201135E-05   -6.23811253E-05   -1.41363008E-04   -6.30530908E-04   -7.63334268E+01   -5.65243330E+01   -5.64791874E+01   
                   0.00000000E+00    5.00000000E+00    6.62888952E-05    1.30430354E-04    1.29901859E-04    6.19600780E-04   -6.94260312E+01   -5.67023900E+01   -5.64764088E+01   
                   5.00000000E+00    5.00000000E+00   -1.31553426E-03   -2.15683787E-02   -1.09305639E-03    5.23459256E-03   -2.60389695E+01   -3.81684341E+01   -2.57808228E+01   
                   1.00000000E+01    5.00000000E+00   -1.17610340E-02   -3.15051859E-02   -1.80442994E-03    8.88340194E-03   -2.21972094E+01   -3.35842712E+01   -2.18925896E+01   
                   1.50000000E+01    5.00000000E+00   -3.54198521E-02   -1.94093880E-02   -1.95462459E-03    1.07550883E-02   -2.06061338E+01   -3.19580404E+01   -2.02991237E+01   
                   2.00000000E+01    5.00000000E+00   -7.17259582E-02    1.67680022E-02   -1.65188089E-03    1.04756427E-02   -1.53868253E+01   -3.22211642E+01   -1.52977232E+01   
                   2.50000000E+01    5.00000000E+00   -1.16465517E-01    7.03297744E-02   -1.09880767E-03    8.18025641E-03   -1.00572662E+01   -3.43984465E+01   -1.00413122E+01   
                   3.00000000E+01    5.00000000E+00   -1.63782079E-01    1.28653389E-01   -5.11892732E-04    4.43878522E-03   -6.35892482E+00   -3.97287861E+01   -6.35692634E+00   
                   3.50000000E+01    5.00000000E+00   -2.08183983E-01    1.77956422E-01   -5.45067424E-05    6.79258087E-05   -3.98030909E+00   -7.39319474E+01   -3.98030865E+00   
                   4.00000000E+01    5.00000000E+00   -2.45858735E-01    2.07913949E-01    1.96567920E-04   -4.10012805E-03   -2.57471722E+00   -4.04655274E+01   -2.57401144E+00   
                   4.50000000E+01    5.00000000E+00   -2.75069541E-01    2.14372365E-01    2.47709761E-04   -7.41535481E-03   -1.88144042E+00   -3.53239640E+01   -1.87947510E+00   
                   5.00000000E+01    5.00000000E+00   -2.95832439E-01    1.99483671E-01    1.59464404E-04   -9.51964936E-03   -1.68280172E+00   -3.31578087E+01   -1.67971051E+00   
                   5.50000000E+01    5.00000000E+00   -3.09266721E-01    1.69765114E-01    9.89223722E-06   -1.03544983E-02   -1.78093547E+00   -3.24288610E+01   -1.77719604E+00   
                   6.00000000E+01    5.00000000E+00   -3.16965731E-01    1.33287430E-01   -1.34467745E-04   -1.00897718E-02   -2.00406600E+00   -3.26530481E+01   -2.00032748E+00   
                   6.50000000E+01    5.00000000E+00   -3.20564596E-01    9.72021284E-02   -2.32850152E-04   -9.01632495E-03   -2.23113397E+00   -3.36279596E+01   -2.22798662E+00   
                   7.00000000E+01    5.00000000E+00   -3.21519243E-01    6.63271404E-02   -2.70768177E-04   -7.44355825E-03   -2.40630972E+00   -3.52900915E+01   -2.40407463E+00   
                   7.50000000E+01    5.00000000E+00   -3.21027649E-01    4.28975998E-02   -2.52459877E-04   -5.62769320E-03   -2.52373461E+00   -3.77161068E+01   -2.52242096E+00   
                   8.00000000E+01    5.00000000E+00   -3.20016597E-01    2.71573654E-02   -1.91465640E-04   -3.73819857E-03   -2.59683203E+00   -4.12668207E+01   -2.59624216E+00   
                   8.50000000E+01    5.00000000E+00   -3.19145915E-01    1.83190055E-02   -1.03449801E-04   -1.85666156E-03   -2.63737495E+00   -4.73433295E+01   -2.63722800E+00   
                   9.00000000E+01    5.00000000E+00   -3.18811808E-01    1.54869033E-02   -2.74029169E-06    2.88760694E-06   -2.65052223E+00   -1.00731846E+02   -2.65052222E+00   
                   9.50000000E+01    5.00000000E+00   -3.19147195E-01    1.82891620E-02    9.78858843E-05    1.86238940E-03   -2.63738668E+00   -4.73180557E+01   -2.63723886E+00   
                   1.00000000E+02    5.00000000E+00   -3.20021371E-01    2.70990514E-02    1.85631778E-04    3.74380635E-03   -2.59683659E+00   -4.12545145E+01   -2.59624505E+00   
                   1.05000000E+02    5.00000000E+00   -3.21040153E-01    4.28138671E-02    2.46118397E-04    5.63317123E-03   -2.52369935E+00   -3.77081049E+01   -2.52238329E+00   
                   1.10000000E+02    5.00000000E+00   -3.21545214E-01    6.62231997E-02    2.63624817E-04    7.44899019E-03   -2.40619192E+00   -3.52840621E+01   -2.40395379E+00   
                   1.15000000E+02    5.00000000E+00   -3.20610229E-01    9.70857462E-02    2.24587620E-04    9.02189752E-03   -2.23087669E+00   -3.36227980E+01   -2.22772579E+00   
                   1.20000000E+02    5.00000000E+00   -3.17036014E-01    1.33168887E-01    1.24823427E-04    1.00957521E-02   -2.00358949E+00   -3.26480089E+01   -1.99984705E+00   
                   1.25000000E+02    5.00000000E+00   -3.09363285E-01    1.69656364E-01   -2.10148117E-05    1.03611703E-02   -1.78013911E+00   -3.24232521E+01   -1.77639554E+00   
                   1.30000000E+02    5.00000000E+00   -2.95951486E-01    1.99396492E-01   -1.71881703E-04    9.52720946E-03   -1.68158487E+00   -3.31507187E+01   -1.67848947E+00   
                   1.35000000E+02    5.00000000E+00   -2.75200773E-01    2.14315646E-01   -2.60892392E-04    7.42378369E-03   -1.87973033E+00   -3.53135798E+01   -1.87776107E+00   
                   1.40000000E+02    5.00000000E+00   -2.45986277E-01    2.07890720E-01   -2.09677835E-04    4.10907315E-03   -2.57249458E+00   -4.04452751E+01   -2.57178586E+00   
                   1.45000000E+02    5.00000000E+00   -2.08289835E-01    1.77961653E-01    4.24427411E-05   -5.92102286E-05   -3.97764965E+00   -7.54827611E+01   -3.97764934E+00   
                   1.50000000E+02    5.00000000E+00   -1.63851580E-01    1.28673709E-01    5.01690627E-04   -4.43139520E-03   -6.35612233E+00   -3.97453262E+01   -6.35413273E+00   
                   1.55000000E+02    5.00000000E+00   -1.16493115E-01    7.03458572E-02    1.09079708E-03   -8.17546906E-03   -1.00552274E+01   -3.44045608E+01   -1.00393034E+01   
                   1.60000000E+02    5.00000000E+00   -7.17188423E-02    1.67595197E-02    1.64566844E-03   -1.04746354E-02   -1.53878701E+01   -3.22227705E+01   -1.52987794E+01   
                   1.65000000E+02    5.00000000E+00   -3.53973872E-02   -1.94574413E-02    1.94907511E-03   -1.07586072E-02   -2.06053970E+01   -3.19560767E+01   -2.02983031E+01   
                   1.70000000E+02    5.00000000E+00   -1.17495168E-02   -3.15968411E-02    1.79792186E-03   -8.89147610E-03   -2.21760900E+01   -3.35779297E+01   -2.18724696E+01   
                   1.75000000E+02    5.00000000E+00   -1.33989422E-03   -2.16939305E-02    1.08395443E-03   -5.24640065E-03   -2.59881457E+01   -3.81526762E+01   -2.57320149E+01   
                   1.80000000E+02    5.00000000E+00   -9.31686401E-06   -7.18935648E-06   -1.42718111E-04   -6.33568421E-04   -9.13172370E+01   -5.64806132E+01   -5.64791874E+01   
                   0.00000000E+00    1.00000000E+01    7.73583389E-05    1.83935794E-04    1.23630085E-04    6.05875258E-04   -6.67307948E+01   -5.69066169E+01   -5.64764088E+01   
                   5.00000000E+00    1.00000000E+01   -1.91956223E-03   -2.16881956E-02   -2.00370709E-03    9.77092191E-03   -2.59730898E+01   -3.27538372E+01   -2.51457463E+01   
                   1.00000000E+01    1.00000000E+01   -1.23671514E-02   -3.40321355E-02   -2.68152344E-03    1.71344583E-02   -2.15549798E+01   -2.79489534E+01   -2.06580305E+01   
                   1.50000000E+01    1.00000000E+01   -3.29991860E-02   -2.51450887E-02   -2.14099341E-03    2.10152871E-02   -2.03730780E+01   -2.62358961E+01   -1.93719596E+01   
                   2.00000000E+01    1.00000000E+01   -6.08732425E-02    8.68027169E-03   -1.00663854E-03    2.06137011E-02   -1.69554958E+01   -2.64379824E+01   -1.64918896E+01   
                   2.50000000E+01    1.00000000E+01   -9.07536280E-02    6.20706194E-02   -1.13214696E-05    1.61774932E-02   -1.19075487E+01   -2.85532196E+01   -1.18145326E+01   
                   3.00000000E+01    1.00000000E+01   -1.17830144E-01    1.23102153E-01    2.87563393E-04    8.84990990E-03   -8.10176683E+00   -3.37880863E+01   -8.09005656E+00   
                   3.50000000E+01    1.00000000E+01   -1.39461713E-01    1.78059776E-01   -3.18502995E-04    2.75257864E-04   -5.64257781E+00   -6.02465383E+01   -5.64256276E+00   
                   4.00000000E+01    1.00000000E+01   -1.55421576E-01    2.16214235E-01   -1.67504471E-03   -7.88261824E-03   -4.22471060E+00   -3.46062268E+01   -4.22073472E+00   
                   4.50000000E+01    1.00000000E+01   -1.66996668E-01    2.32727909E-01   -3.38503939E-03   -1.43424768E-02   -3.59065156E+00   -2.93635453E+01   -3.57917212E+00   
                   5.00000000E+01    1.00000000E+01   -1.75758322E-01    2.28942965E-01   -4.98876180E-03   -1.84178377E-02   -3.52469025E+00   -2.71191859E+01   -3.50574993E+00   
                   5.50000000E+01    1.00000000E+01   -1.82722884E-01    2.10552844E-01   -6.12077809E-03   -2.00178146E-02   -3.82610980E+00   -2.63149522E+01   -3.80169356E+00   
                   6.00000000E+01    1.00000000E+01   -1.88174241E-01    1.84879565E-01   -6.59247011E-03   -1.94927252E-02   -4.30597797E+00   -2.64636608E+01   -4.27963298E+00   
                   6.50000000E+01    1.00000000E+01   -1.91981349E-01    1.58472660E-01   -6.39288248E-03   -1.74160122E-02   -4.80960168E+00   -2.73635089E+01   -4.78554751E+00   
                   7.00000000E+01    1.00000000E+01   -1.94049362E-01    1.35736573E-01   -5.63434676E-03   -1.43848308E-02   -5.24339934E+00   -2.89534821E+01   -5.22495540E+00   
                   7.50000000E+01    1.00000000E+01   -1.94607139E-01    1.18680821E-01   -4.48070206E-03   -1.08864941E-02   -5.57499925E+00   -3.13140507E+01   -5.56343012E+00   
                   8.00000000E+01    1.00000000E+01   -1.94222497E-01    1.07471357E-01   -3.08831213E-03   -7.24043897E-03   -5.80540285E+00   -3.48102180E+01   -5.79994490E+00   
                   8.50000000E+01    1.00000000E+01   -1.93604238E-01    1.01328838E-01   -1.57436683E-03   -3.60089209E-03   -5.94170028E+00   -4.08435517E+01   -5.94029575E+00   
                   9.00000000E+01    1.00000000E+01   -1.93327186E-01    9.93910357E-02   -1.29674673E-05    2.60762641E-06   -5.98706241E+00   -9.03021846E+01   -5.98706240E+00   
                   9.50000000E+01    1.00000000E+01   -1.93611147E-01    1.01302387E-01    1.54844813E-03    3.60618697E-03   -5.94194443E+00   -4.08555972E+01   -5.94054372E+00   
                   1.00000000E+02    1.00000000E+01   -1.94237860E-01    1.07420430E-01    3.06241449E-03    7.24601454E-03   -5.80584144E+00   -3.48157250E+01   -5.80038985E+00   
                   1.05000000E+02    1.00000000E+01   -1.94633791E-01    1.18609520E-01    4.45475964E-03    1.08926650E-02   -5.57554637E+00   -3.13171043E+01   -5.56398391E+00   
                   1.10000000E+02    1.00000000E+01   -1.94090858E-01    1.35651279E-01    5.60821560E-03    1.43920604E-02   -5.24394469E+00   -2.89550425E+01   -5.22550506E+00   
                   1.15000000E+02    1.00000000E+01   -1.92041005E-01    1.58381941E-01    6.36638629E-03    1.74248884E-02   -4.81001066E+00   -2.73638725E+01   -4.78595625E+00   
                   1.20000000E+02    1.00000000E+01   -1.88253797E-01    1.84793540E-01    6.56550460E-03    1.95038591E-02   -4.30609368E+00   -2.64628468E+01   -4.27974307E+00   
                   1.25000000E+02    1.00000000E+01   -1.82820984E-01    2.10481837E-01    6.09345724E-03    2.00316631E-02   -3.82577659E+00   -2.63127631E+01   -3.80134995E+00   
                   1.30000000E+02    1.00000000E+01   -1.75869287E-01    2.28895480E-01    4.96156076E-03    1.84344780E-02   -3.52378962E+00   -2.71151017E+01   -3.50483544E+00   
                   1.35000000E+02    1.00000000E+01   -1.67110222E-01    2.32708331E-01    3.35886274E-03    1.43613930E-02   -3.58912601E+00   -2.93562233E+01   -3.57763126E+00   
                   1.40000000E+02    1.00000000E+01   -1.55524170E-01    2.16220924E-01    1.65114324E-03    7.90257711E-03   -4.22258000E+00   -3.45905026E+01   -4.21859166E+00   
                   1.45000000E+02    1.00000000E+01   -1.39539647E-01    1.78084328E-01    2.98194794E-04   -2.56170808E-04   -5.63999023E+00   -6.08409355E+01   -5.63997712E+00   
                   1.50000000E+02    1.00000000E+01   -1.17873927E-01    1.23130397E-01   -3.03336547E-04   -8.83406101E-03   -8.09918403E+00   -3.38031209E+01   -8.08752111E+00   
                   1.55000000E+02    1.00000000E+01   -9.07621258E-02    6.20854382E-02    1.67573033E-07   -1.61673011E-02   -1.19063337E+01   -2.85586957E+01   -1.18134593E+01   
                   1.60000000E+02    1.00000000E+01   -6.08557910E-02    8.66575462E-03    9.99008082E-04   -2.06111452E-02   -1.69582260E+01   -2.64392130E+01   -1.64944680E+01   
                   1.65000000E+02    1.00000000E+01   -3.29742792E-02   -2.51991360E-02    2.13463303E-03   -2.10214339E-02   -2.03703594E+01   -2.62336466E+01   -1.93693375E+01   
                   1.70000000E+02    1.00000000E+01   -1.23576489E-02   -3.41265742E-02    2.67346447E-03   -1.71491219E-02   -2.15344854E+01   -2.79423228E+01   -2.06401197E+01   
                   1.75000000E+02    1.00000000E+01   -1.94594540E-03   -2.18130437E-02    1.99102642E-03   -9.79255951E-03   -2.59226945E+01   -3.27375999E+01   -2.51012567E+01   
                   1.80000000E+02    1.00000000E+01    3.15729226E-06    4.80571281E-05   -1.42987043E-04   -6.31784096E-04   -7.90775848E+01   -5.65031283E+01   -5.64791874E+01   
                   0.00000000E+00    1.50000000E+01    8.78390390E-05    2.36041371E-04    1.16417412E-04    5.87538659E-04   -6.47084152E+01   -5.71834704E+01   -5.64764088E+01   
                   5.00000000E+00    1.50000000E+01   -2.56641931E-03   -2.09650529E-02   -2.58619421E-03    1.40883428E-02   -2.62369298E+01   -2.96103118E+01   -2.45937038E+01   
                   1.00000000E+01    1.50000000E+01   -1.26380346E-02   -3.47680817E-02   -2.51785623E-03    2.50783568E-02   -2.13688731E+01   -2.47019067E+01   -1.97128960E+01   
                   1.50000000E+01    1.50000000E+01   -2.95541357E-02   -2.80830683E-02   -4.70740821E-04    3.09885468E-02   -2.05248600E+01   -2.29064200E+01   -1.85440970E+01   
                   2.00000000E+01    1.50000000E+01   -4.81939555E-02    4.46378758E-03    2.06418671E-03    3.06072293E-02   -1.90344968E+01   -2.29952576E+01   -1.75678828E+01   
                   2.50000000E+01    1.50000000E+01   -6.24419284E-02    5.90153648E-02    3.53700076E-03    2.43391406E-02   -1.40498190E+01   -2.49145807E+01   -1.37077661E+01   
                   3.00000000E+01    1.50000000E+01   -6.85614359E-02    1.24817675E-01    2.93055453E-03    1.39408091E-02   -9.66074053E+00   -2.96578915E+01   -9.61749858E+00   
                   3.50000000E+01    1.50000000E+01   -6.67208278E-02    1.88932535E-01    7.46122023E-05    1.87576628E-03   -6.69489669E+00   -4.72610058E+01   -6.69451549E+00   
                   4.00000000E+01    1.50000000E+01   -6.02787043E-02    2.40973251E-01   -4.40211686E-03   -9.43975302E-03   -4.82847987E+00   -3.23776464E+01   -4.82085055E+00   
                   4.50000000E+01    1.50000000E+01   -5.36816800E-02    2.75916158E-01   -9.40167465E-03   -1.82296434E-02   -3.75454598E+00   -2.64916036E+01   -3.73148250E+00   
                   5.00000000E+01    1.50000000E+01   -5.03424467E-02    2.94306794E-01   -1.37854587E-02   -2.36298654E-02   -3.23019131E+00   -2.39900538E+01   -3.19388505E+00   
                   5.50000000E+01    1.50000000E+01   -5.15224554E-02    3.00469336E-01   -1.67182891E-02   -2.56339278E-02   -3.04958848E+00   -2.30159073E+01   -3.00603998E+00   
                   6.00000000E+01    1.50000000E+01   -5.64543950E-02    2.99986037E-01   -1.78247755E-02   -2.48239799E-02   -3.03827879E+00   -2.30281979E+01   -2.99496512E+00   
                   6.50000000E+01    1.50000000E+01   -6.32669127E-02    2.97603322E-01   -1.71576511E-02   -2.20385851E-02   -3.06672300E+00   -2.38100313E+01   -3.03027866E+00   
                   7.00000000E+01    1.50000000E+01   -7.00408068E-02    2.96152596E-01   -1.50490290E-02   -1.80964427E-02   -3.06477011E+00   -2.52967052E+01   -3.03887039E+00   
                   7.50000000E+01    1.50000000E+01   -7.54995252E-02    2.96478866E-01   -1.19339530E-02   -1.36313758E-02   -3.01869259E+00   -2.75696154E+01   -3.00348950E+00   
                   8.00000000E+01    1.50000000E+01   -7.91769327E-02    2.98021912E-01   -8.21286319E-03   -9.03674141E-03   -2.95027834E+00   -3.09962674E+01   -2.94347307E+00   
                   8.50000000E+01    1.50000000E+01   -8.11833437E-02    2.99629662E-01   -4.18190619E-03   -4.48692340E-03   -2.89208761E+00   -3.69771636E+01   -2.89039252E+00   
                   9.00000000E+01    1.50000000E+01   -8.18099950E-02    3.00289834E-01   -2.87974665E-05    6.35930610E-07   -2.86969404E+00   -8.35422433E+01   -2.86969401E+00   
                   9.50000000E+01    1.50000000E+01   -8.11963839E-02    2.99610718E-01    4.12458001E-03    4.48852992E-03   -2.89250380E+00   -3.70307989E+01   -2.89082936E+00   
                   1.00000000E+02    1.50000000E+01   -7.92035105E-02    2.97986162E-01    8.15631986E-03    9.03940074E-03   -2.95105932E+00   -3.10219000E+01   -2.94429286E+00   
                   1.05000000E+02    1.50000000E+01   -7.55404275E-02    2.96430584E-01    1.18786445E-02    1.36359305E-02   -3.01973432E+00   -2.75854269E+01   -3.00458276E+00   
                   1.10000000E+02    1.50000000E+01   -7.00966875E-02    2.96098047E-01    1.49953305E-02    1.81038705E-02   -3.06591801E+00   -2.53072583E+01   -3.04007415E+00   
                   1.15000000E+02    1.50000000E+01   -6.33376636E-02    2.97550290E-01    1.71058831E-02    2.20499107E-02   -3.06778362E+00   -2.38171322E+01   -3.03138972E+00   
                   1.20000000E+02    1.50000000E+01   -5.65383744E-02    2.99942834E-01    1.77752705E-02    2.48400718E-02   -3.03904462E+00   -2.30326791E+01   -2.99576781E+00   
                   1.25000000E+02    1.50000000E+01   -5.16157386E-02    3.00443272E-01    1.66714925E-02    2.56552032E-02   -3.04987080E+00   -2.30180934E+01   -3.00634130E+00   
                   1.30000000E+02    1.50000000E+01   -5.04383963E-02    2.94302335E-01    1.37420328E-02    2.36559701E-02   -3.22984813E+00   -2.39898277E+01   -3.19354284E+00   
                   1.35000000E+02    1.50000000E+01   -5.37712251E-02    2.75933271E-01    9.36254486E-03    1.82592154E-02   -3.75349816E+00   -2.64880456E+01   -3.73042138E+00   
                   1.40000000E+02    1.50000000E+01   -6.03516705E-02    2.41006545E-01    4.36838695E-03    9.47038426E-03   -4.82673121E+00   -3.23663157E+01   -4.81908505E+00   
                   1.45000000E+02    1.50000000E+01   -6.67683714E-02    1.88971682E-01   -1.01930525E-04   -1.84729998E-03   -6.69261044E+00   -4.73874952E+01   -6.69224037E+00   
                   1.50000000E+02    1.50000000E+01   -6.85791068E-02    1.24849192E-01   -2.95097885E-03   -1.39180661E-02   -9.65853704E+00   -2.96688940E+01   -9.61542573E+00   
                   1.55000000E+02    1.50000000E+01   -6.24323172E-02    5.90253992E-02   -3.55105991E-03   -2.43253888E-02   -1.40498282E+01   -2.49186719E+01   -1.37080844E+01   
                   1.60000000E+02    1.50000000E+01   -4.81676314E-02    4.44123623E-03   -2.07373710E-03   -3.06048357E-02   -1.90395748E+01   -2.29957515E+01   -1.75716465E+01   
                   1.65000000E+02    1.50000000E+01   -2.95279819E-02   -2.81437770E-02    4.62575473E-04   -3.09985212E-02   -2.05199812E+01   -2.29036597E+01   -1.85399940E+01   
                   1.70000000E+02    1.50000000E+01   -1.26311261E-02   -3.48650867E-02    2.50721044E-03   -2.51001245E-02   -2.13480415E+01   -2.46948110E+01   -1.96964144E+01   
                   1.75000000E+02    1.50000000E+01   -2.59478307E-03   -2.10884775E-02    2.56933453E-03   -1.41197659E-02   -2.61852844E+01   -2.95934220E+01   -2.45529772E+01   
                   1.80000000E+02    1.50000000E+01    1.56074195E-05    1.02937869E-04   -1.42167758E-04   -6.25191511E-04   -7.23812350E+01   -5.65922240E+01   -5.64791874E+01   
                   0.00000000E+00    2.00000000E+01    9.76512309E-05    2.86350530E-04    1.08318732E-04    5.64730536E-04   -6.31156983E+01   -5.75377147E+01   -5.64764088E+01   
                   5.00000000E+00    2.00000000E+01   -3.18291466E-03   -1.94368603E-02   -2.85151927E-03    1.80434614E-02   -2.68439967E+01   -2.74979146E+01   -2.41483597E+01   
                   1.00000000E+01    2.00000000E+01   -1.24028294E-02   -3.37529304E-02   -1.40532066E-03    3.24218264E-02   -2.16151571E+01   -2.25065450E+01   -1.90277215E+01   
                   1.50000000E+01    2.00000000E+01   -2.50272749E-02   -2.82309014E-02    2.89555148E-03    4.02643864E-02   -2.11983344E+01   -2.06106227E+01   -1.78842446E+01   
                   2.00000000E+01    2.00000000E+01   -3.42728159E-02    4.17780368E-03    7.44421962E-03    4.00083803E-02   -2.19683924E+01   -2.05406150E+01   -1.81857920E+01   
                   2.50000000E+01    2.00000000E+01   -3.35692467E-02    6.12595341E-02    9.66451668E-03    3.23007769E-02   -1.58475819E+01   -2.21748231E+01   -1.49381024E+01   
                   3.00000000E+01    2.00000000E+01   -2.04177172E-02    1.33699272E-01    7.98133557E-03    1.95713131E-02   -1.01087445E+01   -2.62309172E+01   -1.00039551E+01   
                   3.50000000E+01    2.00000000E+01    2.30781510E-03    2.09693914E-01    2.29701029E-03    5.08414161E-03   -6.29920373E+00   -3.78003872E+01   -6.29613109E+00   
                   4.00000000E+01    2.00000000E+01    2.79007276E-02    2.79524756E-01   -6.14807502E-03   -8.11217412E-03   -3.75998602E+00   -3.25775890E+01   -3.75428780E+00   
                   4.50000000E+01    2.00000000E+01    4.89478158E-02    3.38133783E-01   -1.53729930E-02   -1.79457303E-02   -2.05960860E+00   -2.52621621E+01   -2.03888370E+00   
                   5.00000000E+01    2.00000000E+01    6.02349715E-02    3.85153152E-01   -2.33918547E-02   -2.35961345E-02   -9.13833264E-01   -2.23019269E+01   -8.82399073E-01   
                   5.50000000E+01    2.00000000E+01    6.01624492E-02    4.23148832E-01   -2.87816274E-02   -2.53213273E-02   -1.14668064E-01   -2.10595976E+01   -7.98703821E-02   
                   6.00000000E+01    2.00000000E+01    5.04505457E-02    4.55390133E-01   -3.09221400E-02   -2.40317176E-02    4.89204290E-01   -2.08740359E+01    5.20818231E-01   
                   6.50000000E+01    2.00000000E+01    3.47643941E-02    4.84202628E-01   -2.99222090E-02   -2.08351107E-02    9.91426266E-01   -2.14947574E+01    1.01585741E+00   