##File Type: Far field
##File Format: 5
##Source: Yagi_6_element_V0_1_Panel_Elements_optimised_optimum
##Date: 2018-08-01 13:30:20
** File exported by POSTFEKO version 2018-319328 (x64)

#Configuration Name: StandardConfiguration1
#Request Name: Yagi_FarField
#Frequency: 5.80000000E+09
#Coordinate System: Spherical
#No. of Theta Samples: 37
#No. of Phi Samples: 73
#Result Type: Directivity
#No. of Header Lines: 1
#                 "Theta"           "Phi"             "Re(Etheta)"      "Im(Etheta)"      "Re(Ephi)"        "Im(Ephi)"        "Directivity(Theta)""Directivity(Phi)""Directivity(Total)"
                   0.00000000E+00    0.00000000E+00    1.41411833E-03   -4.74290530E-03   -1.34072943E-04   -1.23312033E-04   -4.38913065E+01   -7.25731113E+01   -4.38854274E+01   
                   5.00000000E+00    0.00000000E+00   -3.03091587E-02    3.98869550E-02   -1.40889257E-04   -1.45915519E-04   -2.37859901E+01   -7.16392987E+01   -2.37859189E+01   
                   1.00000000E+01    0.00000000E+00   -1.02306717E-01    2.83974066E-02   -1.52969181E-04   -1.48404861E-04   -1.72616351E+01   -7.12092470E+01   -1.72616176E+01   
                   1.50000000E+01    0.00000000E+00   -1.41119040E-01   -6.11165542E-02   -1.78286565E-04   -1.25912253E-04   -1.40437821E+01   -7.10023429E+01   -1.40437734E+01   
                   2.00000000E+01    0.00000000E+00   -7.70939915E-02   -1.79452038E-01   -2.19996703E-04   -8.21349827E-05   -1.19675110E+01   -7.03670217E+01   -1.19675047E+01   
                   2.50000000E+01    0.00000000E+00    9.36691059E-02   -2.30447910E-01   -2.72038958E-04   -2.78219165E-05   -9.86654698E+00   -6.90442486E+01   -9.86654174E+00   
                   3.00000000E+01    0.00000000E+00    2.90853261E-01   -1.34378418E-01   -3.19566347E-04    2.33093546E-05   -7.66833589E+00   -6.76677945E+01   -7.66833155E+00   
                   3.50000000E+01    0.00000000E+00    3.89648186E-01    1.15011469E-01   -3.44600665E-04    5.85740238E-05   -5.60581655E+00   -6.69120397E+01   -5.60581333E+00   
                   4.00000000E+01    0.00000000E+00    2.91222099E-01    4.37618470E-01   -3.34097920E-04    6.85985868E-05   -3.36793299E+00   -6.71252477E+01   -3.36793116E+00   
                   4.50000000E+01    0.00000000E+00   -2.19427314E-02    7.02418026E-01   -2.86259424E-04    4.80724194E-05   -8.45910867E-01   -6.85260817E+01   -8.45910126E-01   
                   5.00000000E+01    0.00000000E+00   -4.76986007E-01    7.85062811E-01   -2.12011634E-04   -3.91985738E-06    1.48053741E+00   -7.12533817E+01    1.48053764E+00   
                   5.50000000E+01    0.00000000E+00   -9.47285276E-01    6.14602379E-01   -1.31141140E-04   -8.34256759E-05    3.27333310E+00   -7.39514785E+01    3.27333318E+00   
                   6.00000000E+01    0.00000000E+00   -1.30934338E+00    1.90973529E-01   -6.50783500E-05   -1.81541757E-04    4.65043194E+00   -7.20774944E+01    4.65043204E+00   
                   6.50000000E+01    0.00000000E+00   -1.48964664E+00   -4.24942798E-01   -2.95949899E-05   -2.85630660E-04    6.01937113E+00   -6.86195878E+01    6.01937128E+00   
                   7.00000000E+01    0.00000000E+00   -1.48332025E+00   -1.13540562E+00   -3.03160553E-05   -3.82026160E-04    7.64542885E+00   -6.61129345E+01    7.64542903E+00   
                   7.50000000E+01    0.00000000E+00   -1.34387575E+00   -1.83096980E+00   -6.23398820E-05   -4.59284217E-04    9.34313443E+00   -6.44611459E+01    9.34313461E+00   
                   8.00000000E+01    0.00000000E+00   -1.15553354E+00   -2.41002985E+00   -1.13335732E-04   -5.10491900E-04    1.07570516E+01   -6.34133288E+01    1.07570518E+01   
                   8.50000000E+01    0.00000000E+00   -1.00237809E+00   -2.79191882E+00   -1.68218494E-04   -5.33620185E-04    1.16625559E+01   -6.28259511E+01    1.16625560E+01   
                   9.00000000E+01    0.00000000E+00   -9.44182374E-01   -2.92512540E+00   -2.13385890E-04   -5.30008078E-04    1.19712649E+01   -6.26439983E+01    1.19712651E+01   
                   9.50000000E+01    0.00000000E+00   -1.00234617E+00   -2.79195404E+00   -2.39344757E-04   -5.02032979E-04    1.16626213E+01   -6.28779374E+01    1.16626215E+01   
                   1.00000000E+02    0.00000000E+00   -1.15545467E+00   -2.41007043E+00   -2.41665687E-04   -4.51331813E-04    1.07570597E+01   -6.35973448E+01    1.07570599E+01   
                   1.05000000E+02    0.00000000E+00   -1.34372837E+00   -1.83096766E+00   -2.20905603E-04   -3.78553171E-04    9.34279431E+00   -6.49467458E+01    9.34279447E+00   
                   1.10000000E+02    0.00000000E+00   -1.48308865E+00   -1.13531429E+00   -1.82142213E-04   -2.84821158E-04    7.64431553E+00   -6.72016402E+01    7.64431567E+00   
                   1.15000000E+02    0.00000000E+00   -1.48933083E+00   -4.24738957E-01   -1.34281267E-04   -1.74200304E-04    6.01735455E+00   -7.09356522E+01    6.01735464E+00   
                   1.20000000E+02    0.00000000E+00   -1.30896188E+00    1.91275341E-01   -8.88198133E-05   -5.57598448E-05    4.64823982E+00   -7.73688756E+01    4.64823985E+00   
                   1.25000000E+02    0.00000000E+00   -9.46870458E-01    6.14948904E-01   -5.77016450E-05    5.63231209E-05    3.27210792E+00   -7.96517414E+01    3.27210794E+00   
                   1.30000000E+02    0.00000000E+00   -4.76575542E-01    7.85377211E-01   -5.03597210E-05    1.45502716E-04    1.48106410E+00   -7.40332679E+01    1.48106423E+00   
                   1.35000000E+02    0.00000000E+00   -2.15711751E-02    7.02625967E-01   -7.06967718E-05    1.97853554E-04   -8.43484513E-01   -7.13333369E+01   -8.43484125E-01   
                   1.40000000E+02    0.00000000E+00    2.91529090E-01    4.37674555E-01   -1.15165770E-04    2.07139273E-04   -3.36435114E+00   -7.02870286E+01   -3.36435025E+00   
                   1.45000000E+02    0.00000000E+00    3.89877085E-01    1.14914745E-01   -1.73003424E-04    1.77223037E-04   -5.60170867E+00   -6.99047504E+01   -5.60170706E+00   
                   1.50000000E+02    0.00000000E+00    2.91004240E-01   -1.34586338E-01   -2.29037790E-04    1.20263420E-04   -7.66225760E+00   -6.95263968E+01   -7.66225477E+00   
                   1.55000000E+02    0.00000000E+00    9.37557928E-02   -2.30700595E-01   -2.68491037E-04    5.15926657E-05   -9.85723858E+00   -6.90459921E+01   -9.85723334E+00   
                   1.60000000E+02    0.00000000E+00   -7.70478932E-02   -1.79683376E-01   -2.82111837E-04   -1.57490249E-05   -1.19588698E+01   -6.87601201E+01   -1.19588607E+01   
                   1.65000000E+02    0.00000000E+00   -1.41087048E-01   -6.12822186E-02   -2.69332696E-04   -7.38064768E-05   -1.40417169E+01   -6.88618101E+01   -1.40417026E+01   
                   1.70000000E+02    0.00000000E+00   -1.02269198E-01    2.83104631E-02   -2.37649816E-04   -1.18980032E-04   -1.72664943E+01   -6.92919414E+01   -1.72664671E+01   
                   1.75000000E+02    0.00000000E+00   -3.02612239E-02    3.98649805E-02   -1.98288658E-04   -1.49593281E-04   -2.37940548E+01   -6.98794517E+01   -2.37939479E+01   
                   1.80000000E+02    0.00000000E+00    1.46083971E-03   -4.72643469E-03   -1.60528412E-04   -1.64496013E-04   -4.38951456E+01   -7.05533928E+01   -4.38857810E+01   
                   0.00000000E+00    5.00000000E+00    1.39705196E-03   -4.73560446E-03   -2.56811289E-04    2.90528640E-04   -4.39121319E+01   -6.60107677E+01   -4.38854274E+01   
                   5.00000000E+00    5.00000000E+00   -3.05710629E-02    4.01744780E-02   -4.53564644E-03    2.60832082E-03   -2.37190796E+01   -4.34084510E+01   -2.36726789E+01   
                   1.00000000E+01    5.00000000E+00   -1.02630764E-01    2.95626906E-02   -7.03056864E-03    7.56683908E-03   -1.72103355E+01   -3.75009877E+01   -1.71699062E+01   
                   1.50000000E+01    5.00000000E+00   -1.41848261E-01   -5.88796968E-02   -6.86940871E-03    1.43818104E-02   -1.40551952E+01   -3.37332911E+01   -1.40086744E+01   
                   2.00000000E+01    5.00000000E+00   -7.86447966E-02   -1.77246079E-01   -3.46124473E-03    2.19728190E-02   -1.20300455E+01   -3.08378947E+01   -1.19732705E+01   
                   2.50000000E+01    5.00000000E+00    9.19542517E-02   -2.30731957E-01    3.32561193E-03    2.88608015E-02   -9.87971365E+00   -2.85186068E+01   -9.82070156E+00   
                   3.00000000E+01    5.00000000E+00    2.91421895E-01   -1.39815339E-01    1.28015158E-02    3.33062433E-02   -7.59193403E+00   -2.67331460E+01   -7.53932865E+00   
                   3.50000000E+01    5.00000000E+00    3.96011248E-01    1.03333009E-01    2.31641681E-02    3.38304509E-02   -5.54184388E+00   -2.55261810E+01   -5.49847479E+00   
                   4.00000000E+01    5.00000000E+00    3.05873829E-01    4.21567852E-01    3.16353583E-02    2.99840436E-02   -3.44791010E+00   -2.49948924E+01   -3.41760123E+00   
                   4.50000000E+01    5.00000000E+00    3.04145836E-04    6.87179754E-01    3.52306740E-02    2.29307276E-02   -1.04065194E+00   -2.53096485E+01   -1.02443110E+00   
                   5.00000000E+01    5.00000000E+00   -4.51735077E-01    7.78523176E-01    3.19743008E-02    1.53350520E-02    1.30366370E+00   -2.67869118E+01    1.31039951E+00   
                   5.50000000E+01    5.00000000E+00   -9.26053793E-01    6.26162752E-01    2.19719984E-02    1.03426723E-02    3.18584287E+00   -3.00754571E+01    3.18789191E+00   
                   6.00000000E+01    5.00000000E+00   -1.29862036E+00    2.30062755E-01    7.67972998E-03    1.00191044E-02    4.62179418E+00   -3.57582474E+01    4.62219207E+00   
                   6.50000000E+01    5.00000000E+00   -1.49258565E+00   -3.50579714E-01   -6.90090036E-03    1.40900491E-02    5.92994551E+00   -3.38700278E+01    5.93040026E+00   
                   7.00000000E+01    5.00000000E+00   -1.49870786E+00   -1.02148511E+00   -1.77318834E-02    1.98061516E-02    7.38931434E+00   -2.92896885E+01    7.39024724E+00   
                   7.50000000E+01    5.00000000E+00   -1.36738127E+00   -1.67809334E+00   -2.21675442E-02    2.31643668E-02    8.92571158E+00   -2.76621799E+01    8.92666426E+00   
                   8.00000000E+01    5.00000000E+00   -1.18234220E+00   -2.22424384E+00   -1.96386056E-02    2.09128540E-02    1.02423890E+01   -2.86279439E+01    1.02429522E+01   
                   8.50000000E+01    5.00000000E+00   -1.02950060E+00   -2.58415121E+00   -1.14674330E-02    1.22751654E-02    1.11040640E+01   -3.32767714E+01    1.11042224E+01   
                   9.00000000E+01    5.00000000E+00   -9.71042402E-01   -2.70963489E+00   -1.96449361E-04   -5.40073997E-04    1.14008886E+01   -6.25933387E+01    1.14008888E+01   
                   9.50000000E+01    5.00000000E+00   -1.02944792E+00   -2.58417405E+00    1.10968342E-02   -1.33290552E-02    1.11040694E+01   -3.29992319E+01    1.11042382E+01   
                   1.00000000E+02    5.00000000E+00   -1.18222693E+00   -2.22426056E+00    1.93281697E-02   -2.18871891E-02    1.02422533E+01   -2.84744681E+01    1.02428369E+01   
                   1.05000000E+02    5.00000000E+00   -1.36719042E+00   -1.67805857E+00    2.19366692E-02   -2.40055375E-02    8.92511966E+00   -2.75393248E+01    8.92609980E+00   
                   1.10000000E+02    5.00000000E+00   -1.49843486E+00   -1.02135773E+00    1.75747694E-02   -2.04654566E-02    7.38789036E+00   -2.91624918E+01    7.38885130E+00   
                   1.15000000E+02    5.00000000E+00   -1.49223704E+00   -3.50344184E-01    6.78711231E-03   -1.45332000E-02    5.92771757E+00   -3.36780199E+01    5.92819311E+00   
                   1.20000000E+02    5.00000000E+00   -1.29821632E+00    2.30383618E-01   -7.79706239E-03   -1.02363605E-02    4.61954272E+00   -3.55920530E+01    4.61995634E+00   
                   1.25000000E+02    5.00000000E+00   -9.25623240E-01    6.26509867E-01   -2.21426205E-02   -1.03547128E-02    3.18458315E+00   -3.00185665E+01    3.18665981E+00   
                   1.30000000E+02    5.00000000E+00   -4.51308897E-01    7.78818915E-01   -3.22363288E-02   -1.51911648E-02    1.30406951E+00   -2.67441855E+01    1.31087123E+00   
                   1.35000000E+02    5.00000000E+00    6.98307057E-04    6.87354736E-01   -3.56000199E-02   -2.26992217E-02   -1.03843683E+00   -2.52714817E+01   -1.02208141E+00   
                   1.40000000E+02    5.00000000E+00    3.06214374E-01    4.21585733E-01   -3.21024000E-02   -2.97380648E-02   -3.44433320E+00   -2.49605613E+01   -3.41380969E+00   
                   1.45000000E+02    5.00000000E+00    3.96284424E-01    1.03202751E-01   -2.36982116E-02   -3.36338802E-02   -5.53693251E+00   -2.54958928E+01   -5.49331053E+00   
                   1.50000000E+02    5.00000000E+00    2.91623938E-01   -1.40044598E-01   -1.33609099E-02   -3.32035791E-02   -7.58437665E+00   -2.67065972E+01   -7.53154212E+00   
                   1.55000000E+02    5.00000000E+00    9.20931651E-02   -2.30990533E-01   -3.86974386E-03   -2.88727201E-02   -9.86952117E+00   -2.84949842E+01   -9.81032755E+00   
                   1.60000000E+02    5.00000000E+00   -7.85502912E-02   -1.77468886E-01    2.96210104E-03   -2.20969397E-02   -1.20226394E+01   -3.08180697E+01   -1.19657028E+01   
                   1.65000000E+02    5.00000000E+00   -1.41774464E-01   -5.90262995E-02    6.42937472E-03   -1.45971495E-02   -1.40558663E+01   -3.37266561E+01   -1.40092677E+01   
                   1.70000000E+02    5.00000000E+00   -1.02558335E-01    2.95004902E-02    6.64951476E-03   -7.84056129E-03   -1.72173981E+01   -3.75417025E+01   -1.71772795E+01   
                   1.75000000E+02    5.00000000E+00   -3.04937494E-02    4.01787270E-02    4.20513827E-03   -2.90383274E-03   -2.37265494E+01   -4.36130877E+01   -2.36821976E+01   
                   1.80000000E+02    5.00000000E+00    1.46927175E-03   -4.69411241E-03   -3.25969853E-05   -5.75805981E-04   -4.39450817E+01   -6.25626404E+01   -4.38857810E+01   
                   0.00000000E+00    1.00000000E+01    1.36935318E-03   -4.69226282E-03   -3.77595146E-04    7.02158215E-04   -4.39994515E+01   -5.97501920E+01   -4.38854274E+01   
                   5.00000000E+00    1.00000000E+01   -3.13214502E-02    4.10461178E-02   -8.80188901E-03    5.24230557E-03   -2.35237565E+01   -3.75720278E+01   -2.33560519E+01   
                   1.00000000E+01    1.00000000E+01   -1.03552220E-01    3.30171520E-02   -1.37303546E-02    1.47983806E-02   -1.70583863E+01   -3.16806270E+01   -1.69110957E+01   
                   1.50000000E+01    1.00000000E+01   -1.43978945E-01   -5.22563268E-02   -1.35560243E-02    2.76869415E-02   -1.40786576E+01   -2.80033040E+01   -1.39062055E+01   
                   2.00000000E+01    1.00000000E+01   -8.33419290E-02   -1.70641467E-01   -7.37571405E-03    4.16956527E-02   -1.22112743E+01   -2.52464299E+01   -1.20005617E+01   
                   2.50000000E+01    1.00000000E+01    8.63983284E-02   -2.31289068E-01    4.70043245E-03    5.40083398E-02   -9.93165988E+00   -2.31000717E+01   -9.72716692E+00   
                   3.00000000E+01    1.00000000E+01    2.92060022E-01   -1.55264630E-01    2.10163962E-02    6.15722454E-02   -7.39164206E+00   -2.15157513E+01   -7.22678615E+00   
                   3.50000000E+01    1.00000000E+01    4.13435151E-01    6.98700236E-02    3.81024612E-02    6.20589965E-02   -5.33161320E+00   -2.05367481E+01   -5.20255022E+00   
                   4.00000000E+01    1.00000000E+01    3.48391739E-01    3.75555962E-01    5.12016953E-02    5.50543405E-02   -3.59210575E+00   -2.02595820E+01   -3.49955057E+00   
                   4.50000000E+01    1.00000000E+01    6.74955505E-02    6.43488022E-01    5.57209622E-02    4.27273744E-02   -1.56373066E+00   -2.08531907E+01   -1.51288039E+00   
                   5.00000000E+01    1.00000000E+01   -3.71765912E-01    7.59285003E-01    4.90956579E-02    2.93250820E-02    7.59321380E-01   -2.26361255E+01    7.79147966E-01   
                   5.50000000E+01    1.00000000E+01   -8.53534213E-01    6.57092631E-01    3.21282637E-02    1.94657644E-02    2.86361075E+00   -2.62863548E+01    2.86888941E+00   
                   6.00000000E+01    1.00000000E+01   -1.25450636E+00    3.36348533E-01    9.01507097E-03    1.59956791E-02    4.48887610E+00   -3.25040440E+01    4.48974396E+00   
                   6.50000000E+01    1.00000000E+01   -1.49060037E+00   -1.48516912E-01   -1.40363183E-02    1.85653279E-02    5.72806555E+00   -3.04445547E+01    5.72911381E+00   
                   7.00000000E+01    1.00000000E+01   -1.54118676E+00   -7.12269491E-01   -3.09403250E-02    2.37612116E-02    6.81576050E+00   -2.59582019E+01    6.81805281E+00   
                   7.50000000E+01    1.00000000E+01   -1.44662979E+00   -1.26305715E+00   -3.76434734E-02    2.67830041E-02    7.88590941E+00   -2.44893824E+01    7.88842205E+00   
                   8.00000000E+01    1.00000000E+01   -1.28587926E+00   -1.71928136E+00   -3.31090639E-02    2.38183462E-02    8.85439714E+00   -2.55717699E+01    8.85596421E+00   
                   8.50000000E+01    1.00000000E+01   -1.14548948E+00   -2.01875098E+00   -1.92534018E-02    1.39198552E-02    9.53181429E+00   -3.02657601E+01    9.53226928E+00   
                   9.00000000E+01    1.00000000E+01   -1.09064940E+00   -2.12292325E+00   -1.67714347E-04   -5.26943387E-04    9.77388329E+00   -6.29277215E+01    9.77388352E+00   
                   9.50000000E+01    1.00000000E+01   -1.14540196E+00   -2.01875662E+00    1.89441152E-02   -1.49461306E-02    9.53167099E+00   -3.01308432E+01    9.53214035E+00   
                   1.00000000E+02    1.00000000E+01   -1.28570309E+00   -1.71926547E+00    3.28693965E-02   -2.47605966E-02    8.85391877E+00   -2.54942480E+01    8.85551423E+00   
                   1.05000000E+02    1.00000000E+01   -1.44636654E+00   -1.26297883E+00    3.74929854E-02   -2.75840734E-02    7.88477948E+00   -2.44242624E+01    7.88733072E+00   
                   1.10000000E+02    1.00000000E+01   -1.54084533E+00   -7.12095534E-01    3.08667047E-02   -2.43701030E-02    6.81380136E+00   -2.58881243E+01    6.81613200E+00   
                   1.15000000E+02    1.00000000E+01   -1.49019866E+00   -1.48242255E-01    1.39977322E-02   -1.89493612E-02    5.72558961E+00   -3.03390143E+01    5.72666427E+00   
                   1.20000000E+02    1.00000000E+01   -1.25406854E+00    3.36690725E-01   -9.07735972E-03   -1.61522328E-02    4.48664084E+00   -3.24254093E+01    4.48752501E+00   
                   1.25000000E+02    1.00000000E+01   -8.53085474E-01    6.57436832E-01   -3.22711848E-02   -1.94268770E-02    2.86243768E+00   -2.62627473E+01    2.86774653E+00   
                   1.30000000E+02    1.00000000E+01   -3.71328273E-01    7.59553891E-01   -4.93566050E-02   -2.91514415E-02    7.59826855E-01   -2.26155416E+01    7.79745104E-01   
                   1.35000000E+02    1.00000000E+01    6.79043458E-02    6.43619623E-01   -5.61077063E-02   -4.24937015E-02   -1.56139986E+00   -2.08326845E+01   -1.51033757E+00   
                   1.40000000E+02    1.00000000E+01    3.48757095E-01    3.75525895E-01   -5.16928818E-02   -5.48322574E-02   -3.58826586E+00   -2.02395473E+01   -3.49536857E+00   
                   1.45000000E+02    1.00000000E+01    4.13745241E-01    6.96994970E-02   -3.86569232E-02   -6.19037240E-02   -5.32586873E+00   -2.05176987E+01   -5.19641559E+00   
                   1.50000000E+02    1.00000000E+01    2.92308121E-01   -1.55517977E-01   -2.15865306E-02   -6.15163329E-02   -7.38277057E+00   -2.14979279E+01   -7.21758089E+00   
                   1.55000000E+02    1.00000000E+01    8.65866517E-02   -2.31552845E-01   -5.24467293E-03   -5.40617647E-02   -9.92065506E+00   -2.30835733E+01   -9.71590927E+00   
                   1.60000000E+02    1.00000000E+01   -8.32005119E-02   -1.70853216E-01    6.88467134E-03   -4.18495587E-02   -1.22054066E+01   -2.52322691E+01   -1.19943009E+01   
                   1.65000000E+02    1.00000000E+01   -1.43864456E-01   -5.23812977E-02    1.31286162E-02   -2.79186874E-02   -1.40823389E+01   -2.79965405E+01   -1.39094797E+01   
                   1.70000000E+02    1.00000000E+01   -1.03446084E-01    3.29811532E-02    1.33628911E-02   -1.50771668E-02   -1.70673459E+01   -3.16979998E+01   -1.69203357E+01   
                   1.75000000E+02    1.00000000E+01   -3.12158920E-02    4.10768102E-02    8.48298132E-03   -5.53561928E-03   -2.35304097E+01   -3.76704147E+01   -2.33661448E+01   
                   1.80000000E+02    1.00000000E+01    1.46652174E-03   -4.62606510E-03    9.55825247E-05   -9.82733719E-04   -4.40619361E+01   -5.78924522E+01   -4.38857810E+01   
                   0.00000000E+00    1.50000000E+01    1.33123279E-03   -4.61321022E-03   -4.95505275E-04    1.10844394E-03   -4.41546179E+01   -5.60965740E+01   -4.38854274E+01   
                   5.00000000E+00    1.50000000E+01   -3.25294856E-02    4.24524619E-02   -1.28155781E-02    7.64302509E-03   -2.32178242E+01   -3.43057378E+01   -2.28922770E+01   
                   1.00000000E+01    1.50000000E+01   -1.05003801E-01    3.85613238E-02   -2.00724957E-02    2.11085302E-02   -1.68085239E+01   -2.84956687E+01   -1.65235893E+01   
                   1.50000000E+01    1.50000000E+01   -1.47434717E-01   -4.15658864E-02   -2.01752609E-02    3.87344179E-02   -1.40779064E+01   -2.49776506E+01   -1.37384932E+01   
                   2.00000000E+01    1.50000000E+01   -9.14009688E-02   -1.59713832E-01   -1.23760732E-02    5.70923404E-02   -1.24848511E+01   -2.24510756E+01   -1.20678429E+01   
                   2.50000000E+01    1.50000000E+01    7.57395551E-02   -2.31271598E-01    2.39818684E-03    7.22691879E-02   -1.00571535E+01   -2.05982167E+01   -9.68972159E+00   
                   3.00000000E+01    1.50000000E+01    2.89574213E-01   -1.78251937E-01    2.11790427E-02    8.05991226E-02   -7.15146816E+00   -1.93654810E+01   -6.89815610E+00   
                   3.50000000E+01    1.50000000E+01    4.36750458E-01    1.90381539E-02    3.91985716E-02    7.99023372E-02   -4.96914820E+00   -1.87943083E+01   -4.79278009E+00   
                   4.00000000E+01    1.50000000E+01    4.13550052E-01    3.05429133E-01    5.11219674E-02    7.05342961E-02   -3.56091408E+00   -1.89804762E+01   -3.43798151E+00   
                   4.50000000E+01    1.50000000E+01    1.78517602E-01    5.76753031E-01    5.29257513E-02    5.54221746E-02   -2.16493454E+00   -2.00936429E+01   -2.09552195E+00   
                   5.00000000E+01    1.50000000E+01   -2.29028592E-01    7.28483696E-01    4.34846742E-02    3.88568199E-02   -1.24312282E-01   -2.24662881E+01   -9.90586743E-02   
                   5.50000000E+01    1.50000000E+01   -7.09461746E-01    6.98134111E-01    2.50142148E-02    2.46777974E-02    2.17748099E+00   -2.68664292E+01    2.18289006E+00   
                   6.00000000E+01    1.50000000E+01   -1.14652082E+00    4.82411733E-01    2.22473683E-03    1.49008329E-02    4.11349190E+00   -3.42221022E+01    4.11412898E+00   
                   6.50000000E+01    1.50000000E+01   -1.45124559E+00    1.28081385E-01   -1.92385552E-02    9.45665435E-03    5.48645513E+00   -3.11587292E+01    5.48739533E+00   
                   7.00000000E+01    1.50000000E+01   -1.58878163E+00   -2.91604083E-01   -3.43269417E-02    6.91647572E-03    6.38311367E+00   -2.68965298E+01    6.38515409E+00   
                   7.50000000E+01    1.50000000E+01   -1.58171845E+00   -7.00740859E-01   -3.96925636E-02    5.54792535E-03    6.97882011E+00   -2.57238499E+01    6.98115035E+00   
                   8.00000000E+01    1.50000000E+01   -1.49336984E+00   -1.03632605E+00   -3.43396726E-02    4.09133370E-03    7.40850498E+00   -2.70049220E+01    7.41007666E+00   
                   8.50000000E+01    1.50000000E+01   -1.39984787E+00   -1.25433163E+00   -1.98533853E-02    2.03846714E-03    7.69928048E+00   -3.17798232E+01    7.69977009E+00   
                   9.00000000E+01    1.50000000E+01   -1.36110949E+00   -1.32967470E+00   -1.02692412E-04   -4.74149512E-04    7.80581019E+00   -6.40646689E+01    7.80581047E+00   
                   9.50000000E+01    1.50000000E+01   -1.39972480E+00   -1.25430344E+00    1.96735143E-02   -2.95836788E-03    7.69876996E+00   -3.18073118E+01    7.69925654E+00   
                   1.00000000E+02    1.50000000E+01   -1.49313251E+00   -1.03625022E+00    3.42268666E-02   -4.92510512E-03    7.40736662E+00   -2.70057103E+01    7.40893843E+00   
                   1.05000000E+02    1.50000000E+01   -1.58138424E+00   -7.00590365E-01    3.96626276E-02   -6.23799381E-03    6.97697966E+00   -2.57083109E+01    6.97931924E+00   
                   1.10000000E+02    1.50000000E+01   -1.58837499E+00   -2.91362626E-01    3.43614585E-02   -7.41327004E-03    6.38072838E+00   -2.68630475E+01    6.38278571E+00   
                   1.15000000E+02    1.50000000E+01   -1.45079452E+00    1.28403160E-01    1.92879309E-02   -9.73183724E-03    5.48394486E+00   -3.10913754E+01    5.48490031E+00   
                   1.20000000E+02    1.50000000E+01   -1.14605182E+00    4.82770385E-01   -2.22643173E-03   -1.49595388E-02    4.11144501E+00   -3.41885476E+01    4.11208733E+00   
                   1.25000000E+02    1.50000000E+01   -7.08995536E-01    6.98462031E-01   -2.51273466E-02   -2.45621510E-02    2.17658960E+00   -2.68665059E+01    2.18199968E+00   
                   1.30000000E+02    1.50000000E+01   -2.28578974E-01    7.28709918E-01   -4.37437715E-02   -3.86368400E-02   -1.23389632E-01   -2.24592017E+01   -9.81002617E-02   
                   1.35000000E+02    1.50000000E+01    1.78941326E-01    5.76828052E-01   -5.33293504E-02   -5.51770801E-02   -2.16209976E+00   -2.00819911E+01   -2.09254723E+00   
                   1.40000000E+02    1.50000000E+01    4.13939175E-01    3.05343168E-01   -5.16361241E-02   -7.03325509E-02   -3.55648830E+00   -1.89665261E+01   -3.43328962E+00   
                   1.45000000E+02    1.50000000E+01    4.37095009E-01    1.88248677E-02   -3.97708360E-02   -7.97887445E-02   -4.96249483E+00   -1.87795015E+01   -4.78580195E+00   
                   1.50000000E+02    1.50000000E+01    2.89865264E-01   -1.78527737E-01   -2.17555220E-02   -8.05922352E-02   -7.14144947E+00   -1.93507223E+01   -6.88786871E+00   
                   1.55000000E+02    1.50000000E+01    7.59743722E-02   -2.31536748E-01   -2.93684814E-03   -7.23663336E-02   -1.00455577E+01   -2.05841816E+01   -9.67792785E+00   
                   1.60000000E+02    1.50000000E+01   -9.12150293E-02   -1.59910366E-01    1.18990337E-02   -5.72769279E-02   -1.24811511E+01   -2.24389636E+01   -1.20633721E+01   
                   1.65000000E+02    1.50000000E+01   -1.47281538E-01   -4.16661230E-02    1.97655760E-02   -3.89818512E-02   -1.40847231E+01   -2.49711289E+01   -1.37443057E+01   
                   1.70000000E+02    1.50000000E+01   -1.04865758E-01    3.85529584E-02    1.97224665E-02   -2.13904961E-02   -1.68188153E+01   -2.85056415E+01   -1.65338605E+01   
                   1.75000000E+02    1.50000000E+01   -3.23971471E-02    4.25096133E-02    1.25110265E-02   -7.93182923E-03   -2.32235012E+01   -3.43689079E+01   -2.29020807E+01   
                   1.80000000E+02    1.50000000E+01    1.45261061E-03   -4.52281063E-03    2.23034594E-04   -1.38218226E-03   -4.42475345E+01   -5.48591176E+01   -4.38857810E+01   
                   0.00000000E+00    2.00000000E+01    1.28298092E-03   -4.49904831E-03   -6.09644311E-04    1.50629374E-03   -4.43801031E+01   -5.35650551E+01   -4.38854274E+01   
                   5.00000000E+00    2.00000000E+01   -3.41448865E-02    4.43150003E-02   -1.64595501E-02    9.71339499E-03   -2.28270432E+01   -3.21559575E+01   -2.23476386E+01   
                   1.00000000E+01    2.00000000E+01   -1.06871445E-01    4.58819653E-02   -2.58738779E-02    2.61470983E-02   -1.64701540E+01   -2.64686701E+01   -1.60560922E+01   
                   1.50000000E+01    2.00000000E+01   -1.52047650E-01   -2.73037134E-02   -2.65660915E-02    4.67417761E-02   -1.40046310E+01   -2.31722538E+01   -1.35080864E+01   
                   2.00000000E+01    2.00000000E+01   -1.02991731E-01   -1.44566970E-01   -1.84407803E-02    6.67889909E-02   -1.27980024E+01   -2.09688951E+01   -1.21820681E+01   
                   2.50000000E+01    2.00000000E+01    5.83644709E-02   -2.29352973E-01   -3.77675754E-03    8.16003268E-02   -1.02994664E+01   -1.95389286E+01   -9.81062625E+00   
                   3.00000000E+01    2.00000000E+01    2.79394594E-01   -2.05039511E-01    1.29666646E-02    8.77035005E-02   -6.98653797E+00   -1.88278132E+01   -6.71123007E+00   
                   3.50000000E+01    2.00000000E+01    4.57707251E-01   -4.27844301E-02    2.63588850E-02    8.41147343E-02   -4.53252163E+00   -1.88778054E+01   -4.37570521E+00   
                   4.00000000E+01    2.00000000E+01    4.90999027E-01    2.19152537E-01    3.20815060E-02    7.26611606E-02   -3.17146063E+00   -1.97825460E+01   -3.07770880E+00   
                   4.50000000E+01    2.00000000E+01    3.25504169E-01    4.93864884E-01    2.87616609E-02    5.68132239E-02   -2.34317299E+00   -2.17021775E+01   -2.29312587E+00   
                   5.00000000E+01    2.00000000E+01   -2.23136158E-02    6.87385993E-01    1.83135246E-02    3.97206884E-02   -1.03347236E+00   -2.49646417E+01   -1.01594201E+00   
                   5.50000000E+01    2.00000000E+01   -4.77520874E-01    7.38276565E-01    4.58619980E-03    2.29319762E-02    1.10017589E+00   -3.04029111E+01    1.10324719E+00   
                   6.00000000E+01    2.00000000E+01   -9.40715356E-01    6.36414932E-01   -8.60624959E-03    6.73595178E-03    3.32373400E+00   -3.70105409E+01    3.32413610E+00   
                   6.50000000E+01    2.00000000E+01   -1.32558027E+00    4.17258687E-01   -1.87033354E-02   -8.36652703E-03    5.07636521E+00   -3.15514956E+01    5.07730917E+00   