##File Type: Far field
##File Format: 5
##Source: Yagi_6_element_V0_1_optimum_optimum
##Date: 2018-08-01 10:39:17
** File exported by POSTFEKO version 2018-319328 (x64)

#Configuration Name: StandardConfiguration1
#Request Name: Yagi_FarField
#Frequency: 5.80000000E+09
#Coordinate System: Spherical
#No. of Theta Samples: 37
#No. of Phi Samples: 73
#Result Type: Directivity
#No. of Header Lines: 1
#                 "Theta"           "Phi"             "Re(Etheta)"      "Im(Etheta)"      "Re(Ephi)"        "Im(Ephi)"        "Directivity(Theta)""Directivity(Phi)""Directivity(Total)"
                   0.00000000E+00    0.00000000E+00    4.13667002E-05    6.95166934E-04    3.49361292E-06   -3.37166710E-05   -5.61611311E+01   -8.24149914E+01   -5.61508537E+01   
                   5.00000000E+00    0.00000000E+00   -3.00984754E-02   -2.62570710E-03   -2.36688914E-06   -3.40162753E-05   -2.34144483E+01   -8.23635535E+01   -2.34144428E+01   
                   1.00000000E+01    0.00000000E+00   -4.05298177E-02    2.13158529E-03   -1.48911571E-05   -3.68683130E-05   -2.08507753E+01   -8.10288933E+01   -2.08507711E+01   
                   1.50000000E+01    0.00000000E+00   -3.71399883E-02    3.89968627E-02   -3.28655609E-05   -4.38117779E-05   -1.83940837E+01   -7.82476064E+01   -1.83940792E+01   
                   2.00000000E+01    0.00000000E+00   -4.00283621E-02    1.21740744E-01   -5.35656985E-05   -5.47870456E-05   -1.08637187E+01   -7.53312143E+01   -1.08637172E+01   
                   2.50000000E+01    0.00000000E+00   -7.13179416E-02    2.43829805E-01   -7.36031342E-05   -6.77607300E-05   -4.92002708E+00   -7.30143844E+01   -4.92002641E+00   
                   3.00000000E+01    0.00000000E+00   -1.40242944E-01    3.78434405E-01   -8.98653015E-05   -7.92557476E-05   -8.99568603E-01   -7.14475530E+01   -8.99568220E-01   
                   3.50000000E+01    0.00000000E+00   -2.34133966E-01    4.87816827E-01   -1.00137253E-04   -8.55843959E-05    1.64720857E+00   -7.06247294E+01    1.64720883E+00   
                   4.00000000E+01    0.00000000E+00   -3.20374393E-01    5.36485592E-01   -1.03274802E-04   -8.42413454E-05    2.89746265E+00   -7.05232751E+01    2.89746284E+00   
                   4.50000000E+01    0.00000000E+00   -3.58255673E-01    5.01626201E-01   -9.90903695E-05   -7.48625774E-05    2.77929697E+00   -7.11364894E+01    2.77929715E+00   
                   5.00000000E+01    0.00000000E+00   -3.14734227E-01    3.77241906E-01   -8.82123934E-05   -5.93772653E-05    8.08552132E-01   -7.24847574E+01    8.08552335E-01   
                   5.50000000E+01    0.00000000E+00   -1.76840879E-01    1.72506030E-01   -7.20560372E-05   -4.13331272E-05   -5.16275761E+00   -7.46294588E+01   -5.16275711E+00   
                   6.00000000E+01    0.00000000E+00    4.41029551E-02   -9.26943884E-02   -5.28347459E-05   -2.47019688E-05   -1.27909626E+01   -7.77013073E+01   -1.27909612E+01   
                   6.50000000E+01    0.00000000E+00    3.17091621E-01   -3.92131469E-01   -3.34264124E-05   -1.26525138E-05    1.03544146E+00   -8.19549574E+01    1.03544148E+00   
                   7.00000000E+01    0.00000000E+00    6.01720917E-01   -6.96340047E-01   -1.69663206E-05   -6.75382352E-06    6.26035191E+00   -8.77876945E+01    6.26035191E+00   
                   7.50000000E+01    0.00000000E+00    8.59240213E-01   -9.74914807E-01   -6.21332935E-06   -6.85608488E-06    9.25739598E+00   -9.36929504E+01    9.25739598E+00   
                   8.00000000E+01    0.00000000E+00    1.06011277E+00   -1.19899021E+00   -2.89329733E-06   -1.15774955E-05    1.10665378E+01   -9.14828726E+01    1.10665378E+01   
                   8.50000000E+01    0.00000000E+00    1.18626497E+00   -1.34434790E+00   -7.26503714E-06   -1.90579971E-05    1.20528643E+01   -8.68274562E+01    1.20528643E+01   
                   9.00000000E+01    0.00000000E+00    1.22909851E+00   -1.39472281E+00   -1.80726988E-05   -2.75652643E-05    1.23673911E+01   -8.26581020E+01    1.23673911E+01   
                   9.50000000E+01    0.00000000E+00    1.18624650E+00   -1.34436836E+00   -3.29068264E-05   -3.56995940E-05    1.20528794E+01   -7.92940786E+01    1.20528794E+01   
                   1.00000000E+02    0.00000000E+00    1.06007762E+00   -1.19902408E+00   -4.88603350E-05   -4.22439114E-05    1.10665492E+01   -7.68149459E+01    1.10665492E+01   
                   1.05000000E+02    0.00000000E+00    8.59191803E-01   -9.74949997E-01   -6.32699243E-05   -4.59510863E-05    9.25735850E+00   -7.51545941E+01    9.25735852E+00   
                   1.10000000E+02    0.00000000E+00    6.01664141E-01   -6.96362890E-01   -7.42981382E-05   -4.55888215E-05    6.26016469E+00   -7.42109549E+01    6.26016473E+00   
                   1.15000000E+02    0.00000000E+00    3.17032711E-01   -3.92130549E-01   -8.11635198E-05   -4.03509966E-05    1.03479115E+00   -7.38718082E+01    1.03479129E+00   
                   1.20000000E+02    0.00000000E+00    4.40493133E-02   -9.26636836E-02   -8.39763867E-05   -3.04374674E-05   -1.27952593E+01   -7.39990666E+01   -1.27952560E+01   
                   1.25000000E+02    0.00000000E+00   -1.76881239E-01    1.72565493E-01   -8.33305834E-05   -1.74155783E-05   -5.16028229E+00   -7.44165089E+01   -5.16028178E+00   
                   1.30000000E+02    0.00000000E+00   -3.14753901E-01    3.77322256E-01   -7.99181796E-05   -4.03993960E-06    8.09865660E-01   -7.49542689E+01    8.09865775E-01   
                   1.35000000E+02    0.00000000E+00   -3.58249670E-01    5.01714653E-01   -7.43767129E-05    6.51359015E-06    2.78026204E+00   -7.55563437E+01    2.78026210E+00   
                   1.40000000E+02    0.00000000E+00   -3.20341966E-01    5.36567606E-01   -6.73720152E-05    1.17190200E-05    2.89821035E+00   -7.63192186E+01    2.89821040E+00   
                   1.45000000E+02    0.00000000E+00   -2.34079628E-01    4.87879709E-01   -5.97192435E-05    1.06101139E-05    1.64774123E+00   -7.73610107E+01    1.64774128E+00   
                   1.50000000E+02    0.00000000E+00   -1.40175948E-01    3.78470449E-01   -5.23191993E-05    4.10883420E-06   -8.99342097E-01   -7.86183394E+01   -8.99342023E-01   
                   1.55000000E+02    0.00000000E+00   -7.12500851E-02    2.43838126E-01   -4.58693142E-05   -5.39649509E-06   -4.92040504E+00   -7.97281194E+01   -4.92040490E+00   
                   1.60000000E+02    0.00000000E+00   -3.99706886E-02    1.21727235E-01   -4.05512872E-05   -1.50486791E-05   -1.08658090E+01   -8.02978291E+01   -1.08658085E+01   
                   1.65000000E+02    0.00000000E+00   -3.70995350E-02    3.89722387E-02   -3.59845168E-05   -2.26394325E-05   -1.84014624E+01   -8.04476511E+01   -1.84014596E+01   
                   1.70000000E+02    0.00000000E+00   -4.05076220E-02    2.10805853E-03   -3.15660618E-05   -2.73207952E-05   -2.08557835E+01   -8.06056839E+01   -2.08557789E+01   
                   1.75000000E+02    0.00000000E+00   -3.00896235E-02   -2.63807691E-03   -2.70092962E-05   -2.95881156E-05   -2.34166739E+01   -8.09636259E+01   -2.34166663E+01   
                   1.80000000E+02    0.00000000E+00    4.56480264E-05    6.99043901E-04   -2.26954828E-05   -3.06088397E-05   -5.61096957E+01   -8.13986401E+01   -5.60968650E+01   
                   0.00000000E+00    5.00000000E+00    4.15137758E-05    6.89583013E-04   -1.25026814E-07   -9.41761594E-05   -5.62308221E+01   -7.35394372E+01   -5.61508537E+01   
                   5.00000000E+00    5.00000000E+00   -3.01814628E-02   -2.63920529E-03   -5.79529633E-04   -1.28356116E-04   -2.33903765E+01   -5.75487695E+01   -2.33887097E+01   
                   1.00000000E+01    5.00000000E+00   -4.07708767E-02    1.97365417E-03   -1.26269239E-03    1.27730375E-04   -2.08010981E+01   -5.09480986E+01   -2.07969018E+01   
                   1.50000000E+01    5.00000000E+00   -3.74822752E-02    3.83659007E-02   -2.04640413E-03    7.20823061E-04   -1.84290722E+01   -4.62904942E+01   -1.84219717E+01   
                   2.00000000E+01    5.00000000E+00   -4.01908220E-02    1.20331611E-01   -2.85858880E-03    1.70065386E-03   -1.09513549E+01   -4.25792395E+01   -1.09483706E+01   
                   2.50000000E+01    5.00000000E+00   -7.09234135E-02    2.41660267E-01   -3.55452718E-03    3.05802257E-03   -4.99532992E+00   -3.95967695E+01   -4.99382482E+00   
                   3.00000000E+01    5.00000000E+00   -1.39151660E-01    3.76029770E-01   -3.96321353E-03    4.66070882E-03   -9.56441930E-01   -3.72861510E+01   -9.55430903E-01   
                   3.50000000E+01    5.00000000E+00   -2.32805116E-01    4.86162914E-01   -3.97627533E-03    6.22338043E-03    1.61398328E+00   -3.56510152E+01    1.61479844E+00   
                   4.00000000E+01    5.00000000E+00   -3.20028016E-01    5.36796762E-01   -3.64303783E-03    7.34638808E-03    2.89870991E+00   -3.47419136E+01    2.89945754E+00   
                   4.50000000E+01    5.00000000E+00   -3.60696982E-01    5.05092571E-01   -3.21294209E-03    7.63310754E-03    2.83883310E+00   -3.46558256E+01    2.83960628E+00   
                   5.00000000E+01    5.00000000E+00   -3.21870040E-01    3.84906512E-01   -3.07243946E-03    6.85098343E-03    9.91488113E-01   -3.55073327E+01    9.92460532E-01   
                   5.50000000E+01    5.00000000E+00   -1.90069171E-01    1.85298221E-01   -3.57010892E-03    5.06217545E-03   -4.53873197E+00   -3.71781995E+01   -4.53636758E+00   
                   6.00000000E+01    5.00000000E+00    2.43810611E-02   -7.38787415E-02   -4.79606515E-03    2.64746431E-03   -1.51989131E+01   -3.82454151E+01   -1.51774319E+01   
                   6.50000000E+01    5.00000000E+00    2.91624594E-01   -3.66458045E-01   -6.43616122E-03    1.94797926E-04    3.92842771E-01   -3.68417496E+01    3.93663659E-01   
                   7.00000000E+01    5.00000000E+00    5.72140156E-01   -6.63252676E-01   -7.81142771E-03   -1.70243666E-03    5.83109593E+00   -3.49621214E+01    5.83145771E+00   
                   7.50000000E+01    5.00000000E+00    8.27469629E-01   -9.34480850E-01   -8.12695232E-03   -2.64211322E-03    8.90729988E+00   -3.43833634E+01    8.90750345E+00   
                   8.00000000E+01    5.00000000E+00    1.02770969E+00   -1.15220545E+00   -6.83385759E-03   -2.51967445E-03    1.07543693E+01   -3.57713803E+01    1.07544659E+01   
                   8.50000000E+01    5.00000000E+00    1.15400088E+00   -1.29322094E+00   -3.92686752E-03   -1.51963603E-03    1.17589350E+01   -4.05312794E+01    1.17589607E+01   
                   9.00000000E+01    5.00000000E+00    1.19698465E+00   -1.34204890E+00   -1.43271030E-05   -3.05502044E-05    1.20789579E+01   -8.24546256E+01    1.20789579E+01   
                   9.50000000E+01    5.00000000E+00    1.15398305E+00   -1.29323930E+00    3.89346588E-03    1.46024796E-03    1.17589442E+01   -4.06399627E+01    1.17589692E+01   
                   1.00000000E+02    5.00000000E+00    1.02767611E+00   -1.15223537E+00    6.78686598E-03    2.46466137E-03    1.07543691E+01   -3.58468785E+01    1.07544641E+01   
                   1.05000000E+02    5.00000000E+00    8.27424226E-01   -9.34510725E-01    8.05941898E-03    2.59220443E-03    8.90724607E+00   -3.44646626E+01    8.90744587E+00   
                   1.10000000E+02    5.00000000E+00    5.72088372E-01   -6.63269411E-01    7.71929358E-03    1.65612665E-03    5.83088618E+00   -3.50712758E+01    5.83123899E+00   
                   1.15000000E+02    5.00000000E+00    2.91573107E-01   -3.66450784E-01    6.31880469E-03   -2.40615724E-04    3.92142789E-01   -3.69992729E+01    3.92934566E-01   
                   1.20000000E+02    5.00000000E+00    2.43374947E-02   -7.38418941E-02    4.65622243E-03   -2.69631061E-03   -1.52043452E+01   -3.84017040E+01   -1.51835955E+01   
                   1.25000000E+02    5.00000000E+00   -1.90096889E-01    1.85363412E-01    3.41319149E-03   -5.11681953E-03   -4.53659366E+00   -3.72397037E+01   -4.53426366E+00   
                   1.30000000E+02    5.00000000E+00   -3.21874931E-01    3.84992203E-01    2.90549064E-03   -6.91273732E-03    9.92680357E-01   -3.55187525E+01    9.93649957E-01   
                   1.35000000E+02    5.00000000E+00   -3.60674804E-01    5.05186201E-01    3.04357498E-03   -7.70169810E-03    2.83971907E+00   -3.46563211E+01    2.84049200E+00   
                   1.40000000E+02    5.00000000E+00   -3.19979012E-01    5.36884092E-01    3.47861503E-03   -7.42025462E-03    2.89940373E+00   -3.47470967E+01    2.90015035E+00   
                   1.45000000E+02    5.00000000E+00   -2.32734879E-01    4.86231485E-01    3.82339583E-03   -6.30017188E-03    1.61449116E+00   -3.56694247E+01    1.61530278E+00   
                   1.50000000E+02    5.00000000E+00   -1.39070428E-01    3.76071944E-01    3.82739604E-03   -4.73783933E-03   -9.56195613E-01   -3.73249840E+01   -9.55193642E-01   
                   1.55000000E+02    5.00000000E+00   -7.08436993E-02    2.41675028E-01    3.43991532E-03   -3.13323552E-03   -4.99561519E+00   -3.96636488E+01   -4.99413299E+00   
                   1.60000000E+02    5.00000000E+00   -4.01240101E-02    1.20324602E-01    2.76756663E-03   -1.77253258E-03   -1.09532584E+01   -4.26835054E+01   -1.09503435E+01   
                   1.65000000E+02    5.00000000E+00   -3.74353445E-02    3.83475860E-02    1.97915705E-03   -7.89099590E-04   -1.84365072E+01   -4.64479538E+01   -1.84296476E+01   
                   1.70000000E+02    5.00000000E+00   -4.07444630E-02    1.95611210E-03    1.21690341E-03   -1.93211513E-04   -2.08068939E+01   -5.12050185E+01   -2.08029332E+01   
                   1.75000000E+02    5.00000000E+00   -3.01700238E-02   -2.64587692E-03    5.50476889E-04    6.43071981E-05   -2.33934772E+01   -5.81446147E+01   -2.33920230E+01   
                   1.80000000E+02    5.00000000E+00    4.74523636E-05    6.99051564E-04   -1.86306324E-05    3.04333254E-05   -5.61081145E+01   -8.19689988E+01   -5.60968650E+01   
                   0.00000000E+00    1.00000000E+01    4.13449066E-05    6.78750948E-04   -3.74271502E-06   -1.53918910E-04   -5.63679711E+01   -6.92698577E+01   -5.61508537E+01   
                   5.00000000E+00    1.00000000E+01   -3.04269941E-02   -2.67328285E-03   -1.13375664E-03   -2.24867522E-04   -2.33196881E+01   -5.17602989E+01   -2.33134735E+01   
                   1.00000000E+01    1.00000000E+01   -4.14808312E-02    1.51103229E-03   -2.43182358E-03    2.58939900E-04   -2.06555564E+01   -4.52506601E+01   -2.06405069E+01   
                   1.50000000E+01    1.00000000E+01   -3.84849183E-02    3.64924653E-02   -3.86601438E-03    1.35282944E-03   -1.85268929E+01   -4.07713247E+01   -1.85010674E+01   
                   2.00000000E+01    1.00000000E+01   -4.06443210E-02    1.16117652E-01   -5.28194701E-03    3.08792061E-03   -1.12183627E+01   -3.72855768E+01   -1.12076345E+01   
                   2.50000000E+01    1.00000000E+01   -6.96793973E-02    2.35116497E-01   -6.41278863E-03    5.36115553E-03   -5.22699230E+00   -3.45756151E+01   -5.22194952E+00   
                   3.00000000E+01    1.00000000E+01   -1.35726939E-01    3.68677829E-01   -6.98218215E-03    7.84971902E-03   -1.13333471E+00   -3.25897950E+01   -1.13023027E+00   
                   3.50000000E+01    1.00000000E+01   -2.28450612E-01    4.80938811E-01   -6.86167291E-03    1.00169684E-02    1.50714096E+00   -3.13326352E+01    1.50939881E+00   
                   4.00000000E+01    1.00000000E+01   -3.18226982E-01    5.37397291E-01   -6.19702256E-03    1.12449715E-02    2.89309720E+00   -3.08473097E+01    2.89493227E+00   
                   4.50000000E+01    1.00000000E+01   -3.66681597E-01    5.15208564E-01   -5.40943431E-03    1.10606710E-02    3.00119815E+00   -3.12112603E+01    3.00284425E+00   
                   5.00000000E+01    1.00000000E+01   -3.41241527E-01    4.07762987E-01   -5.03179705E-03    9.35352899E-03    1.49524614E+00   -3.24948852E+01    1.49697869E+00   
                   5.50000000E+01    1.00000000E+01   -2.27056973E-01    2.23600488E-01   -5.43894724E-03    6.46416697E-03   -2.95137758E+00   -3.44832534E+01   -2.94832657E+00   
                   6.00000000E+01    1.00000000E+01   -3.17034849E-02   -1.78385426E-02   -6.61300629E-03    3.08272752E-03   -2.18016007E+01   -3.57562868E+01   -2.16303141E+01   
                   6.50000000E+01    1.00000000E+01    2.18141150E-01   -2.90890366E-01   -8.08522050E-03    1.79858441E-06   -1.80585897E+00   -3.48644268E+01   -1.80371202E+00   
                   7.00000000E+01    1.00000000E+01    4.85430934E-01   -5.67332950E-01   -9.10280434E-03   -2.15078991E-03    4.44426119E+00   -3.35988319E+01    4.44494265E+00   
                   7.50000000E+01    1.00000000E+01    7.32657994E-01   -8.19047356E-01   -8.94254348E-03   -3.07576842E-03    7.80106126E+00   -3.35034595E+01    7.80138286E+00   
                   8.00000000E+01    1.00000000E+01    9.29207443E-01   -1.02033124E+00   -7.21772940E-03   -2.81604567E-03    9.77955067E+00   -3.52348898E+01    9.77968755E+00   
                   8.50000000E+01    1.00000000E+01    1.05446358E+00   -1.15029823E+00   -4.04330624E-03   -1.66284576E-03    1.08468670E+01   -4.02048891E+01    1.08469011E+01   
                   9.00000000E+01    1.00000000E+01    1.09733997E+00   -1.19522428E+00   -6.71091197E-06   -3.74335293E-05    1.11857759E+01   -8.14156641E+01    1.11857759E+01   
                   9.50000000E+01    1.00000000E+01    1.05444949E+00   -1.15031291E+00    4.02471688E-03    1.59223805E-03    1.08468742E+01   -4.02920594E+01    1.08469076E+01   
                   1.00000000E+02    1.00000000E+01    9.29181060E-01   -1.02035441E+00    7.18406296E-03    2.75656272E-03    9.77954668E+00   -3.52943579E+01    9.77968170E+00   
                   1.05000000E+02    1.00000000E+01    7.32622773E-01   -8.19068429E-01    8.88538047E-03    3.02999492E-03    7.80099980E+00   -3.35669845E+01    7.80131674E+00   
                   1.10000000E+02    1.00000000E+01    4.85391792E-01   -5.67340020E-01    9.01664561E-03    2.11615071E-03    4.44402766E+00   -3.36845056E+01    4.44469585E+00   
                   1.15000000E+02    1.00000000E+01    2.18104285E-01   -2.90873661E-01    7.96886146E-03   -3.18591375E-05   -1.80670662E+00   -3.49902694E+01   -1.80462057E+00   
                   1.20000000E+02    1.00000000E+01   -3.17308979E-02   -1.77932760E-02    6.47009063E-03   -3.11611169E-03   -2.18011872E+01   -3.58941057E+01   -2.16351655E+01   
                   1.25000000E+02    1.00000000E+01   -2.27067477E-01    2.23672635E-01    5.27718381E-03   -6.50726279E-03   -2.94979384E+00   -3.45553178E+01   -2.94679411E+00   
                   1.30000000E+02    1.00000000E+01   -3.41228692E-01    4.07854119E-01    4.86102819E-03   -9.40933933E-03    1.49625326E+00   -3.25196807E+01    1.49797555E+00   
                   1.35000000E+02    1.00000000E+01   -3.66641816E-01    5.15306427E-01    5.23938700E-03   -1.11285198E-02    3.00197651E+00   -3.12200149E+01    3.00361900E+00   
                   1.40000000E+02    1.00000000E+01   -3.18161186E-01    5.37488220E-01    6.03568282E-03   -1.13215368E-02    2.89371918E+00   -3.08537903E+01    2.89555125E+00   
                   1.45000000E+02    1.00000000E+01   -2.28365064E-01    4.81011019E-01    6.71475012E-03   -1.00978650E-02    1.50760635E+00   -3.13434739E+01    1.50985833E+00   
                   1.50000000E+02    1.00000000E+01   -1.35632440E-01    3.68724220E-01    6.85345012E-03   -7.93087753E-03   -1.13309370E+00   -3.26095286E+01   -1.13000350E+00   
                   1.55000000E+02    1.00000000E+01   -6.95888299E-02    2.35136301E-01    6.30467029E-03   -5.43963950E-03   -5.22723063E+00   -3.46085171E+01   -5.22222562E+00   
                   1.60000000E+02    1.00000000E+01   -4.05691867E-02    1.16116403E-01    5.19576366E-03   -3.16221005E-03   -1.12201972E+01   -3.73367716E+01   -1.12095901E+01   
                   1.65000000E+02    1.00000000E+01   -3.84320412E-02    3.64802682E-02    3.80172328E-03   -1.42273819E-03   -1.85345536E+01   -4.08494082E+01   -1.85091422E+01   
                   1.70000000E+02    1.00000000E+01   -4.14504589E-02    1.49956241E-03    2.38751364E-03   -3.25273284E-04   -2.06619972E+01   -4.53794761E+01   -2.06473652E+01   
                   1.75000000E+02    1.00000000E+01   -3.04130490E-02   -2.67416903E-03    1.10539631E-03    1.60868527E-04   -2.33236173E+01   -5.20568853E+01   -2.33178074E+01   
                   1.80000000E+02    1.00000000E+01    4.88955598E-05    6.93739023E-04   -1.44239918E-05    9.12438746E-05   -5.61728213E+01   -7.37069944E+01   -5.60968650E+01   
                   0.00000000E+00    1.50000000E+01    4.08613776E-05    6.62753179E-04   -7.33191890E-06   -2.12490245E-04   -5.65747508E+01   -6.64663169E+01   -5.61508537E+01   
                   5.00000000E+00    1.50000000E+01   -3.08264899E-02   -2.72692931E-03   -1.64351658E-03   -3.25438333E-04   -2.32059304E+01   -4.85357523E+01   -2.31932198E+01   
                   1.00000000E+01    1.50000000E+01   -4.26303393E-02    7.56723426E-04   -3.45144954E-03    3.28589564E-04   -2.04225204E+01   -4.22190481E+01   -2.03938984E+01   
                   1.50000000E+01    1.50000000E+01   -4.00998152E-02    3.34121576E-02   -5.32253450E-03    1.74576107E-03   -1.86656076E+01   -3.80521426E+01   -1.86158749E+01   
                   2.00000000E+01    1.50000000E+01   -4.13331401E-02    1.09119614E-01   -6.99847855E-03    3.82809545E-03   -1.16779225E+01   -3.49814393E+01   -1.16576728E+01   
                   2.50000000E+01    1.50000000E+01   -6.74837460E-02    2.24087610E-01   -8.12507386E-03    6.25748329E-03   -5.63289146E+00   -3.27992250E+01   -5.62455975E+00   
                   3.00000000E+01    1.50000000E+01   -1.29647299E-01    3.55980385E-01   -8.42507897E-03    8.46360067E-03   -1.44882372E+00   -3.14766278E+01   -1.44451064E+00   
                   3.50000000E+01    1.50000000E+01   -2.20174725E-01    4.71377552E-01   -7.88576501E-03    9.76435707E-03    1.30619631E+00   -3.10446879E+01    1.30872310E+00   
                   4.00000000E+01    1.50000000E+01   -3.13001603E-01    5.37249407E-01   -6.81811245E-03    9.65158506E-03    2.85443193E+00   -3.15681737E+01    2.85600029E+00   
                   4.50000000E+01    1.50000000E+01   -3.72654083E-01    5.30919671E-01   -5.70864157E-03    8.07393774E-03    3.22194344E+00   -3.31158947E+01    3.22295257E+00   
                   5.00000000E+01    1.50000000E+01   -3.67388265E-01    4.44930640E-01   -4.93228716E-03    5.52676676E-03    2.20536160E+00   -3.56247084E+01    2.20607732E+00   
                   5.50000000E+01    1.50000000E+01   -2.80540174E-01    2.86483554E-01   -4.52194139E-03    2.85371825E-03   -9.56062565E-01   -3.84558704E+01   -9.55290302E-01   
                   6.00000000E+01    1.50000000E+01   -1.15774357E-01    7.35349541E-02   -4.17834565E-03    8.50489576E-04   -1.02741245E+01   -4.04218706E+01   -1.02699289E+01   
                   6.50000000E+01    1.50000000E+01    1.04853134E-01   -1.69860316E-01   -3.53265765E-03   -9.81504951E-05   -7.01434008E+00   -4.20528822E+01   -7.01297906E+00   
                   7.00000000E+01    1.50000000E+01    3.48058912E-01   -4.17359627E-01   -2.46774190E-03   -1.35970524E-04    1.68487103E+00   -4.51591049E+01    1.68496086E+00   
                   7.50000000E+01    1.50000000E+01    5.78180148E-01   -6.43043594E-01   -1.24064827E-03    2.38645740E-04    5.71957481E+00   -5.09875004E+01    5.71958408E+00   
                   8.00000000E+01    1.50000000E+01    7.64392083E-01   -8.23542703E-01   -2.97832638E-04    5.02074265E-04    7.99411085E+00   -5.76934871E+01    7.99411202E+00   
                   8.50000000E+01    1.50000000E+01    8.84560056E-01   -9.40063550E-01    7.69460481E-05    3.85179741E-04    9.19891821E+00   -6.11350519E+01    9.19891861E+00   
                   9.00000000E+01    1.50000000E+01    9.25969381E-01   -9.80332631E-01    5.31943174E-07   -3.55084240E-05    9.57880027E+00   -8.20106619E+01    9.57880027E+00   
                   9.50000000E+01    1.50000000E+01    8.84551468E-01   -9.40071762E-01   -8.10073023E-05   -4.50374655E-04    9.19891886E+00   -5.98085077E+01    9.19891940E+00   
                   1.00000000E+02    1.50000000E+01    7.64376076E-01   -8.23554379E-01    2.78439783E-04   -5.51901163E-04    7.99409282E+00   -5.71962257E+01    7.99409413E+00   
                   1.05000000E+02    1.50000000E+01    5.78159212E-01   -6.43050510E-01    1.19634610E-03   -2.69133669E-04    5.71948587E+00   -5.12467190E+01    5.71949460E+00   
                   1.10000000E+02    1.50000000E+01    3.48037026E-01   -4.17352357E-01    2.39122122E-03    1.21703310E-04    1.68455775E+00   -4.54346339E+01    1.68464206E+00   
                   1.15000000E+02    1.50000000E+01    1.04835732E-01   -1.69830971E-01    3.42113196E-03    9.09844736E-05   -7.01582449E+00   -4.23317972E+01   -7.01454769E+00   
                   1.20000000E+02    1.50000000E+01   -1.15780793E-01    7.35902080E-02    4.03516186E-03   -8.62325881E-04   -1.02719042E+01   -4.07071031E+01   -1.02679771E+01   
                   1.25000000E+02    1.50000000E+01   -2.80529016E-01    2.86562939E-01    4.35632192E-03   -2.88039333E-03   -9.55002973E-01   -3.86607432E+01   -9.54266472E-01   
                   1.30000000E+02    1.50000000E+01   -3.67354110E-01    4.45026709E-01    4.75694512E-03   -5.57351319E-03    2.20614943E+00   -3.57191220E+01    2.20684963E+00   
                   1.35000000E+02    1.50000000E+01   -3.72594399E-01    5.31020865E-01    5.53627779E-03   -8.13999742E-03    3.22259349E+00   -3.31545816E+01    3.22359353E+00   
                   1.40000000E+02    1.50000000E+01   -3.12918185E-01    5.37342840E-01    6.65845964E-03   -9.73157837E-03    2.85497324E+00   -3.15869073E+01    2.85653466E+00   
                   1.45000000E+02    1.50000000E+01   -2.20074309E-01    4.71452225E-01    7.74441831E-03   -9.85102793E-03    1.30661660E+00   -3.10587488E+01    1.30913498E+00   
                   1.50000000E+02    1.50000000E+01   -1.29540766E-01    3.56029892E-01    8.30418668E-03   -8.55045260E-03   -1.44859264E+00   -3.14932480E+01   -1.44429625E+00   
                   1.55000000E+02    1.50000000E+01   -6.73837875E-02    2.24111605E-01    8.02491753E-03   -6.34028372E-03   -5.63310769E+00   -3.28230099E+01   -5.62482103E+00   
                   1.60000000E+02    1.50000000E+01   -4.12509379E-02    1.09123645E-01    6.91871800E-03   -3.90508919E-03   -1.16798077E+01   -3.50167059E+01   -1.16597126E+01   
                   1.65000000E+02    1.50000000E+01   -4.00418281E-02    3.34059509E-02    5.26245294E-03   -1.81705671E-03   -1.86736843E+01   -3.81053331E+01   -1.86244627E+01   
                   1.70000000E+02    1.50000000E+01   -4.25964267E-02    7.51388863E-04    3.40938356E-03   -3.95291530E-04   -2.04294499E+01   -4.23067556E+01   -2.04013536E+01   
                   1.75000000E+02    1.50000000E+01   -3.08101773E-02   -2.72198808E-03    1.61620465E-03    2.62006195E-04   -2.32106145E+01   -4.87356774E+01   -2.31984619E+01   
                   1.80000000E+02    1.50000000E+01    4.99666312E-05    6.83146709E-04   -1.01075758E-05    1.51360003E-04   -5.63048131E+01   -6.93987182E+01   -5.60968650E+01   
                   0.00000000E+00    2.00000000E+01    4.00668689E-05    6.41711458E-04   -1.08653224E-05   -2.69444401E-04   -5.68545707E+01   -6.44018248E+01   -5.61508537E+01   
                   5.00000000E+00    2.00000000E+01   -3.13662558E-02   -2.79832671E-03   -2.08983243E-03   -4.30988882E-04   -2.30545811E+01   -4.64351439E+01   -2.30346866E+01   
                   1.00000000E+01    2.00000000E+01   -4.41737237E-02   -2.65760260E-04   -4.26498255E-03    3.18406682E-04   -2.01148270E+01   -4.03957809E+01   -2.00743078E+01   
                   1.50000000E+01    2.00000000E+01   -4.22570896E-02    2.91964626E-02   -6.29201953E-03    1.83992089E-03   -1.88053600E+01   -3.66861239E+01   -1.87351831E+01   
                   2.00000000E+01    2.00000000E+01   -4.21960565E-02    9.94178453E-02   -7.78680070E-03    3.79603165E-03   -1.23496347E+01   -3.42650976E+01   -1.23217835E+01   
                   2.50000000E+01    2.00000000E+01   -6.42563331E-02    2.08502349E-01   -8.35435030E-03    5.56042219E-03   -6.24200272E+00   -3.29873891E+01   -6.23282391E+00   
                   3.00000000E+01    2.00000000E+01   -1.20593328E-01    3.37469126E-01   -7.83547118E-03    6.32799830E-03   -1.93166173E+00   -3.29562503E+01   -1.92823283E+00   
                   3.50000000E+01    2.00000000E+01   -2.06920521E-01    4.56413104E-01   -6.47180480E-03    5.47116923E-03    9.80704686E-01   -3.44559343E+01    9.81946505E-01   
                   4.00000000E+01    2.00000000E+01   -3.01830847E-01    5.34654466E-01   -4.80590540E-03    2.97736560E-03    2.74465671E+00   -3.79720020E+01    2.74502493E+00   
                   4.50000000E+01    2.00000000E+01   -3.73882107E-01    5.50004524E-01   -3.32310358E-03   -3.39376731E-04    3.43883436E+00   -4.25423253E+01    3.43894392E+00   
                   5.00000000E+01    2.00000000E+01   -3.92904120E-01    4.93713304E-01   -2.08165442E-03   -3.08601814E-03    2.98194618E+00   -4.16016371E+01    2.98209733E+00   
                   5.50000000E+01    2.00000000E+01   -3.40535232E-01    3.70479023E-01   -6.53900079E-04   -3.94577386E-03    1.01669765E+00   -4.09779559E+01    1.01697200E+00   
                   6.00000000E+01    2.00000000E+01   -2.16022570E-01    1.95200580E-01    1.49941842E-03   -2.38949357E-03   -3.73589291E+00   -4.40102605E+01   -3.73548522E+00   
                   6.50000000E+01    2.00000000E+01   -3.58449657E-02   -1.11642717E-02    4.45110699E-03    9.84546656E-04   -2.15276058E+01   -3.98414567E+01   -2.14640409E+01   