##File Type: Far field
##File Format: 5
##Source: Yagi_6_element_V0_1_optimum
##Date: 2018-08-01 09:38:56
** File exported by POSTFEKO version 2018-319328 (x64)

#Configuration Name: StandardConfiguration1
#Request Name: Yagi_FarField
#Frequency: 5.80000000E+09
#Coordinate System: Spherical
#No. of Theta Samples: 37
#No. of Phi Samples: 73
#Result Type: Directivity
#No. of Header Lines: 1
#                 "Theta"           "Phi"             "Re(Etheta)"      "Im(Etheta)"      "Re(Ephi)"        "Im(Ephi)"        "Directivity(Theta)""Directivity(Phi)""Directivity(Total)"
                   0.00000000E+00    0.00000000E+00    7.84094671E-05    6.62144981E-04    1.61589283E-05   -1.94476135E-05   -5.63824172E+01   -8.48047685E+01   -5.63761765E+01   
                   5.00000000E+00    0.00000000E+00   -7.68577313E-03    2.88997045E-02    1.14734129E-05   -2.94797150E-05   -2.33472981E+01   -8.28589480E+01   -2.33472932E+01   
                   1.00000000E+01    0.00000000E+00    2.03924182E-02    5.23237245E-02   -2.86037033E-06   -4.01548628E-05   -1.78738582E+01   -8.07652115E+01   -1.78738559E+01   
                   1.50000000E+01    0.00000000E+00    7.17691734E-02    8.71584751E-02   -2.34268636E-05   -5.18787753E-05   -1.18077348E+01   -7.77562037E+01   -1.18077337E+01   
                   2.00000000E+01    0.00000000E+00    1.18627447E-01    1.40654038E-01   -4.53038475E-05   -6.46304719E-05   -7.56559548E+00   -7.49173984E+01   -7.56559468E+00   
                   2.50000000E+01    0.00000000E+00    1.30846679E-01    2.03021220E-01   -6.35961716E-05   -7.75705791E-05   -5.20240542E+00   -7.28352560E+01   -5.20240468E+00   
                   3.00000000E+01    0.00000000E+00    9.11683777E-02    2.49394533E-01   -7.48671496E-05   -8.91950227E-05   -4.37949131E+00   -7.15390891E+01   -4.37949047E+00   
                   3.50000000E+01    0.00000000E+00    4.39644015E-03    2.50493504E-01   -7.79082669E-05   -9.79122771E-05   -4.88468878E+00   -7.09150056E+01   -4.88468770E+00   
                   4.00000000E+01    0.00000000E+00   -1.03771755E-01    1.85792207E-01   -7.36506667E-05   -1.02690882E-04   -6.30218941E+00   -7.08289507E+01   -6.30218788E+00   
                   4.50000000E+01    0.00000000E+00   -1.96898038E-01    5.23237635E-02   -6.44212197E-05   -1.03439393E-04   -6.68078271E+00   -7.11447492E+01   -6.68078115E+00   
                   5.00000000E+01    0.00000000E+00   -2.41396097E-01   -1.34539655E-01   -5.29664651E-05   -1.00979779E-04   -4.03255756E+00   -7.17217331E+01   -4.03255682E+00   
                   5.50000000E+01    0.00000000E+00   -2.17462263E-01   -3.47469904E-01   -4.16438896E-05   -9.66980440E-05   -6.08212289E-01   -7.24147064E+01   -6.08212003E-01   
                   6.00000000E+01    0.00000000E+00   -1.23728723E-01   -5.56784017E-01   -3.19946186E-05   -9.20753766E-05    2.26111504E+00   -7.30840200E+01    2.26111517E+00   
                   6.50000000E+01    0.00000000E+00    2.45229675E-02   -7.38875813E-01   -2.47026373E-05   -8.82910965E-05    4.51425460E+00   -7.36163006E+01    4.51425467E+00   
                   7.00000000E+01    0.00000000E+00    2.01279777E-01   -8.80718960E-01   -1.98123972E-05   -8.59977612E-05    6.25590075E+00   -7.39476149E+01    6.25590079E+00   
                   7.50000000E+01    0.00000000E+00    3.76849820E-01   -9.79948548E-01   -1.70432962E-05   -8.52719061E-05    7.56110122E+00   -7.40757200E+01    7.56110125E+00   
                   8.00000000E+01    0.00000000E+00    5.23796144E-01   -1.04171483E+00   -1.60749215E-05   -8.56872388E-05    8.47193919E+00   -7.40534164E+01    8.47193922E+00   
                   8.50000000E+01    0.00000000E+00    6.20801341E-01   -1.07414882E+00   -1.67347298E-05   -8.64480893E-05    9.01096657E+00   -7.39670768E+01    9.01096659E+00   
                   9.00000000E+01    0.00000000E+00    6.54614356E-01   -1.08408822E+00   -1.90674982E-05   -8.65421535E-05    9.18945760E+00   -7.39115368E+01    9.18945762E+00   
                   9.50000000E+01    0.00000000E+00    6.20768608E-01   -1.07415376E+00   -2.32931985E-05   -8.49001357E-05    9.01088186E+00   -7.39685990E+01    9.01088189E+00   
                   1.00000000E+02    0.00000000E+00    5.23733802E-01   -1.04172270E+00   -2.96730455E-05   -8.05690850E-05    8.47178299E+00   -7.41861808E+01    8.47178301E+00   
                   1.05000000E+02    0.00000000E+00    3.76764196E-01   -9.79955667E-01   -3.83140711E-05   -7.29081271E-05    7.56090196E+00   -7.45473771E+01    7.56090199E+00   
                   1.10000000E+02    0.00000000E+00    2.01180389E-01   -8.80720638E-01   -4.89587692E-05   -6.17989400E-05    6.25570364E+00   -7.49267967E+01    6.25570367E+00   
                   1.15000000E+02    0.00000000E+00    2.44221355E-02   -7.38867375E-01   -6.08265416E-05   -4.78331439E-05    4.51411630E+00   -7.50892264E+01    4.51411635E+00   
                   1.20000000E+02    0.00000000E+00   -1.23816937E-01   -5.56762007E-01   -7.25850409E-05   -3.24052782E-05    2.26107937E+00   -7.48556851E+01    2.26107946E+00   
                   1.25000000E+02    0.00000000E+00   -2.17523926E-01   -3.47433255E-01   -8.25127152E-05   -1.76211827E-05   -6.08177267E-01   -7.43378547E+01   -6.08177083E-01   
                   1.30000000E+02    0.00000000E+00   -2.41419940E-01   -1.34490456E-01   -8.88554573E-05   -5.95043540E-06   -4.03265558E+00   -7.38688405E+01   -4.03265513E+00   
                   1.35000000E+02    0.00000000E+00   -1.96878146E-01    5.23802661E-02   -9.02892656E-05    3.74246312E-07   -6.68098328E+00   -7.37491587E+01   -6.68098242E+00   
                   1.40000000E+02    0.00000000E+00   -1.03709585E-01    1.85848583E-01   -8.63181158E-05    8.40795447E-08   -6.30141723E+00   -7.41399126E+01   -6.30141652E+00   
                   1.45000000E+02    0.00000000E+00    4.49156023E-03    2.50541948E-01   -7.74220521E-05   -6.52566768E-06   -4.88295117E+00   -7.50539177E+01   -4.88295075E+00   
                   1.50000000E+02    0.00000000E+00    9.12808173E-02    2.49429013E-01   -6.48649599E-05   -1.74245621E-05   -4.37716899E+00   -7.63191520E+01   -4.37716871E+00   
                   1.55000000E+02    0.00000000E+00    1.30958035E-01    2.03039233E-01   -5.02485684E-05   -2.93016740E-05   -5.19969147E+00   -7.75682853E+01   -5.19969122E+00   
                   1.60000000E+02    0.00000000E+00    1.18721186E-01    1.40657298E-01   -3.50561739E-05   -3.85801204E-05   -7.56262484E+00   -7.85204823E+01   -7.56262450E+00   
                   1.65000000E+02    0.00000000E+00    7.18349897E-02    8.71522175E-02   -2.04431325E-05   -4.26172962E-05   -1.18048873E+01   -7.93708216E+01   -1.18048865E+01   
                   1.70000000E+02    0.00000000E+00    2.04288640E-02    5.23148444E-02   -7.35856837E-06   -4.05534347E-05   -1.78730890E+01   -8.05607132E+01   -1.78730867E+01   
                   1.75000000E+02    0.00000000E+00   -7.67132510E-03    2.88944347E-02    3.17426549E-06   -3.33989196E-05   -2.33498555E+01   -8.23482546E+01   -2.33498500E+01   
                   1.80000000E+02    0.00000000E+00    8.43197417E-05    6.64145846E-04    9.93773552E-06   -2.33389859E-05   -5.63472418E+01   -8.47766940E+01   -5.63410113E+01   
                   0.00000000E+00    5.00000000E+00    7.95194388E-05    6.57930348E-04    9.26360340E-06   -7.70833471E-05   -5.64353751E+01   -7.50604706E+01   -5.63761765E+01   
                   5.00000000E+00    5.00000000E+00   -7.47876715E-03    2.87490801E-02    3.29485136E-03   -1.97250395E-03   -2.34050962E+01   -4.11749727E+01   -2.33331193E+01   
                   1.00000000E+01    5.00000000E+00    2.04854859E-02    5.18459713E-02    4.98583093E-03   -5.68888710E-03   -1.79376209E+01   -3.52863295E+01   -1.78583808E+01   
                   1.50000000E+01    5.00000000E+00    7.15394837E-02    8.62521061E-02    4.37133150E-03   -1.02613161E-02   -1.18729849E+01   -3.19136420E+01   -1.18301718E+01   
                   2.00000000E+01    5.00000000E+00    1.18219618E-01    1.39531107E-01    1.29870649E-03   -1.45265669E-02   -7.61866868E+00   -2.95841219E+01   -7.59113517E+00   
                   2.50000000E+01    5.00000000E+00    1.30777357E-01    2.02401272E-01   -3.80846963E-03   -1.74077801E-02   -5.22251287E+00   -2.78440363E+01   -5.19882929E+00   
                   3.00000000E+01    5.00000000E+00    9.20914661E-02    2.50474632E-01   -1.00782654E-02   -1.81658483E-02   -4.33603485E+00   -2.65114485E+01   -4.30979687E+00   
                   3.50000000E+01    5.00000000E+00    6.75305499E-03    2.54627579E-01   -1.64211545E-02   -1.65531409E-02   -4.74079323E+00   -2.55086756E+01   -4.70455368E+00   
                   4.00000000E+01    5.00000000E+00   -1.00017471E-01    1.93991741E-01   -2.17937687E-02   -1.28359358E-02   -6.08257644E+00   -2.48019913E+01   -6.02464119E+00   
                   4.50000000E+01    5.00000000E+00   -1.92304267E-01    6.48083997E-02   -2.54219186E-02   -7.69166071E-03   -6.71498055E+00   -2.43773821E+01   -6.64121549E+00   
                   5.00000000E+01    5.00000000E+00   -2.36870708E-01   -1.18531293E-01   -2.69286125E-02   -2.02219393E-03   -4.40122090E+00   -2.42332542E+01   -4.35631188E+00   
                   5.50000000E+01    5.00000000E+00   -2.13979173E-01   -3.29528699E-01   -2.63470822E-02    3.25687382E-03   -9.76150866E-01   -2.43814448E+01   -9.56369082E-01   
                   6.00000000E+01    5.00000000E+00   -1.22065979E-01   -5.38911499E-01   -2.40345596E-02    7.39393096E-03    1.98567799E+00   -2.48525160E+01    1.99466294E+00   
                   6.50000000E+01    5.00000000E+00    2.39359702E-02   -7.22965935E-01   -2.05274022E-02    9.90936170E-03    4.32515884E+00   -2.57055176E+01    4.32946907E+00   
                   7.00000000E+01    5.00000000E+00    1.98389123E-01   -8.68112906E-01   -1.63858552E-02    1.06252075E-02    6.13065709E+00   -2.70482481E+01    6.13274537E+00   
                   7.50000000E+01    5.00000000E+00    3.71913981E-01   -9.71172661E-01   -1.20686098E-02    9.63199395E-03    7.47829484E+00   -2.90884078E+01    7.47925218E+00   
                   8.00000000E+01    5.00000000E+00    5.17286797E-01   -1.03643049E+00   -7.86018639E-03    7.22121422E-03    8.41483733E+00   -3.22956333E+01    8.41520607E+00   
                   8.50000000E+01    5.00000000E+00    6.13311074E-01   -1.07128216E+00   -3.85610333E-03    3.81208196E-03    8.96731236E+00   -3.81782606E+01    8.96739616E+00   
                   9.00000000E+01    5.00000000E+00    6.46791203E-01   -1.08208142E+00    2.52361504E-06   -1.08264099E-04    9.14993657E+00   -7.21699073E+01    9.14993660E+00   
                   9.50000000E+01    5.00000000E+00    6.13275775E-01   -1.07128137E+00    3.86016140E-03   -4.02531440E-03    8.96718419E+00   -3.79337930E+01    8.96727284E+00   
                   1.00000000E+02    5.00000000E+00    5.17219323E-01   -1.03642761E+00    7.86100039E-03   -7.42471251E-03    8.41459208E+00   -3.21830051E+01    8.41497053E+00   
                   1.05000000E+02    5.00000000E+00    3.71820739E-01   -9.71165336E-01    1.20631846E-02   -9.81984065E-03    7.47795922E+00   -2.90247050E+01    7.47893078E+00   
                   1.10000000E+02    5.00000000E+00    1.98279929E-01   -8.68098284E-01    1.63702499E-02   -1.07925259E-02    6.13028082E+00   -2.70134024E+01    6.13238611E+00   
                   1.15000000E+02    5.00000000E+00    2.38237997E-02   -7.22941434E-01    2.04969146E-02   -1.00529884E-02    4.32482032E+00   -2.56920276E+01    4.32914430E+00   
                   1.20000000E+02    5.00000000E+00   -1.22165991E-01   -5.38875675E-01    2.39843640E-02   -7.51311906E-03    1.98547622E+00   -2.48568698E+01    1.99445259E+00   
                   1.25000000E+02    5.00000000E+00   -2.14051667E-01   -3.29482027E-01    2.62732758E-02   -3.35378995E-03   -9.76143190E-01   -2.44014751E+01   -9.56452262E-01   
                   1.30000000E+02    5.00000000E+00   -2.36902857E-01   -1.18476582E-01    2.68294945E-02    1.94246305E-03   -4.40108072E+00   -2.42670005E+01   -4.35651896E+00   
                   1.35000000E+02    5.00000000E+00   -1.92288812E-01    6.48662149E-02    2.52992021E-02    7.62180872E-03   -6.71481674E+00   -2.44225206E+01   -6.64181075E+00   
                   1.40000000E+02    5.00000000E+00   -9.99551304E-02    1.94046510E-01    2.16533441E-02    1.27678601E-02   -6.08177546E+00   -2.48555714E+01   -6.02455641E+00   
                   1.45000000E+02    5.00000000E+00    6.85278644E-03    2.54673401E-01    1.62730360E-02    1.64798234E-02   -4.73914061E+00   -2.55670982E+01   -4.70339686E+00   
                   1.50000000E+02    5.00000000E+00    9.22118049E-02    2.50507434E-01    9.93547759E-03    1.80831805E-02   -4.33368092E+00   -2.65707649E+01   -4.30781179E+00   
                   1.55000000E+02    5.00000000E+00    1.30897978E-01    2.02419963E-01    3.68487610E-03    1.73157397E-02   -5.21958732E+00   -2.79007836E+01   -5.19622607E+00   
                   1.60000000E+02    5.00000000E+00    1.18321797E-01    1.39537837E-01   -1.39130071E-03    1.44293174E-02   -7.61528756E+00   -2.96368495E+01   -7.58810638E+00   
                   1.65000000E+02    5.00000000E+00    7.16111056E-02    8.62514821E-02   -4.42614254E-03    1.01661629E-02   -1.18694776E+01   -3.19649669E+01   -1.18271991E+01   
                   1.70000000E+02    5.00000000E+00    2.05242562E-02    5.18435009E-02   -5.00326098E-03    5.60441492E-03   -1.79357573E+01   -3.53459251E+01   -1.78576207E+01   
                   1.75000000E+02    5.00000000E+00   -7.46506743E-03    2.87494310E-02   -3.28306036E-03    1.90646895E-03   -2.34060045E+01   -4.12743790E+01   -2.33356287E+01   
                   1.80000000E+02    5.00000000E+00    8.31327492E-05    6.63652697E-04    1.72488665E-05    3.46339517E-05   -5.63555206E+01   -8.11096391E+01   -5.63410113E+01   
                   0.00000000E+00    1.00000000E+01    8.00242196E-05    6.48708468E-04    2.29777684E-06   -1.34132430E-04   -5.65553734E+01   -7.03100056E+01   -5.63761765E+01   
                   5.00000000E+00    1.00000000E+01   -6.86545249E-03    2.83115845E-02    6.48677733E-03   -3.83190934E-03   -2.35745147E+01   -3.53213934E+01   -2.32933491E+01   
                   1.00000000E+01    1.00000000E+01    2.07633890E-02    5.04502345E-02    9.86998052E-03   -1.10674442E-02   -1.81251238E+01   -2.94396079E+01   -1.78155492E+01   
                   1.50000000E+01    1.00000000E+01    7.08564848E-02    8.35918275E-02    8.77381665E-03   -1.99434342E-02   -1.20671639E+01   -2.60975765E+01   -1.18987815E+01   
                   2.00000000E+01    1.00000000E+01    1.16992246E-01    1.36206166E-01    2.92741426E-03   -2.81830304E-02   -7.77809897E+00   -2.38155956E+01   -7.67127165E+00   
                   2.50000000E+01    1.00000000E+01    1.30527319E-01    2.00490782E-01   -6.80611071E-03   -3.37037644E-02   -5.28541970E+00   -2.21348005E+01   -5.19662260E+00   
                   3.00000000E+01    1.00000000E+01    9.47571212E-02    2.53471658E-01   -1.86997171E-02   -3.51135568E-02   -4.21525557E+00   -2.08681308E+01   -4.12239200E+00   
                   3.50000000E+01    1.00000000E+01    1.36478136E-02    2.66536859E-01   -3.06341825E-02   -3.19973185E-02   -4.33543846E+00   -1.99343426E+01   -4.21741204E+00   
                   4.00000000E+01    1.00000000E+01   -8.90057050E-02    2.17901570E-01   -4.06224966E-02   -2.49331653E-02   -5.42661431E+00   -1.92981593E+01   -5.25208273E+00   
                   4.50000000E+01    1.00000000E+01   -1.78868104E-01    1.01585061E-01   -4.72362777E-02   -1.52628373E-02   -6.59718436E+00   -1.89451607E+01   -6.35135309E+00   
                   5.00000000E+01    1.00000000E+01   -2.23779644E-01   -7.08223523E-02   -4.98311632E-02   -4.71064140E-03   -5.45098088E+00   -1.88732977E+01   -5.25784627E+00   
                   5.50000000E+01    1.00000000E+01   -2.04225723E-01   -2.75234255E-01   -4.85429284E-02    5.02432901E-03   -2.16298030E+00   -1.90931585E+01   -2.07580361E+00   
                   6.00000000E+01    1.00000000E+01   -1.18059569E-01   -4.83631025E-01   -4.40978558E-02    1.25928413E-02    1.07970624E+00   -1.96331489E+01    1.11640594E+00   
                   6.50000000E+01    1.00000000E+01    2.08539766E-02   -6.72091527E-01   -3.75249665E-02    1.71747685E-02    3.69079190E+00   -2.05495650E+01    3.70711987E+00   
                   7.00000000E+01    1.00000000E+01    1.88045062E-01   -8.25558534E-01   -2.98648368E-02    1.85076402E-02    5.69267756E+00   -2.19472516E+01    5.70014923E+00   
                   7.50000000E+01    1.00000000E+01    3.55116939E-01   -9.38611097E-01   -2.19467891E-02    1.68034644E-02    7.16876520E+00   -2.40309200E+01    7.17205865E+00   
                   8.00000000E+01    1.00000000E+01    4.95522330E-01   -1.01312766E+00   -1.42696129E-02    1.26123398E-02    8.18281309E+00   -2.72665644E+01    8.18405127E+00   
                   8.50000000E+01    1.00000000E+01    5.88450144E-01   -1.05444439E+00   -6.98699322E-03    6.68643392E-03    8.77599643E+00   -3.31526102E+01    8.77627499E+00   
                   9.00000000E+01    1.00000000E+01    6.20881478E-01   -1.06755389E+00    2.29187695E-05   -1.22914251E-04    8.97121294E+00   -7.09214816E+01    8.97121298E+00   
                   9.50000000E+01    1.00000000E+01    5.88413119E-01   -1.05443644E+00    7.03272996E-03   -6.92783617E-03    8.77581673E+00   -3.29739499E+01    8.77610699E+00   
                   1.00000000E+02    1.00000000E+01    4.95451265E-01   -1.01311128E+00    1.43145906E-02   -1.28405967E-02    8.18245931E+00   -2.71824226E+01    8.18372182E+00   
                   1.05000000E+02    1.00000000E+01    3.55018066E-01   -9.38585551E-01    2.19890733E-02   -1.70103585E-02    7.16825558E+00   -2.39808820E+01    7.17158758E+00   
                   1.10000000E+02    1.00000000E+01    1.87928154E-01   -8.25523260E-01    2.99006809E-02   -1.86860868E-02    5.69205844E+00   -2.19164739E+01    5.69958427E+00   
                   1.15000000E+02    1.00000000E+01    2.07322909E-02   -6.72046662E-01    3.75487443E-02   -1.73197466E-02    3.69016401E+00   -2.05322948E+01    3.70655927E+00   
                   1.20000000E+02    1.00000000E+01   -1.18170139E-01   -4.83577872E-01    4.41026120E-02   -1.27024862E-02    1.07926305E+00   -1.96265606E+01    1.11602197E+00   
                   1.25000000E+02    1.00000000E+01   -2.04308556E-01   -2.75175535E-01    4.85215953E-02   -5.10086296E-03   -2.16292409E+00   -1.90955220E+01   -2.07579548E+00   
                   1.30000000E+02    1.00000000E+01   -2.23820307E-01   -7.07620705E-02    4.97783251E-02    4.66057409E-03   -5.45021902E+00   -1.88832460E+01   -5.25754972E+00   
                   1.35000000E+02    1.00000000E+01   -1.78857724E-01    1.01642197E-01    4.71501436E-02    1.52288201E-02   -6.59637377E+00   -1.89613470E+01   -6.35147615E+00   
                   1.40000000E+02    1.00000000E+01   -8.89438460E-02    2.17951093E-01    4.05065406E-02    2.49027923E-02   -5.42578529E+00   -1.93190867E+01   -5.25210865E+00   
                   1.45000000E+02    1.00000000E+01    1.37519103E-02    2.66575587E-01    3.04978211E-02    3.19588551E-02   -4.33400593E+00   -1.99583024E+01   -4.21665837E+00   
                   1.50000000E+02    1.00000000E+01    9.48857809E-02    2.53498485E-01    1.85574993E-02    3.50588112E-02   -4.21300243E+00   -2.08932854E+01   -4.12071691E+00   
                   1.55000000E+02    1.00000000E+01    1.30658292E-01    2.00506903E-01    6.67524705E-03    3.36302740E-02   -5.28233451E+00   -2.21595290E+01   -5.19409855E+00   
                   1.60000000E+02    1.00000000E+01    1.17104348E-01    1.36214613E-01   -3.03082144E-03    2.80947831E-02   -7.77425556E+00   -2.38391917E+01   -7.66809291E+00   
                   1.65000000E+02    1.00000000E+01    7.09353742E-02    8.35964693E-02   -8.83891749E-03    1.98497955E-02   -1.20628399E+01   -2.61212400E+01   -1.18955185E+01   
                   1.70000000E+02    1.00000000E+01    2.08055454E-02    5.04546228E-02   -9.89442669E-03    1.09805790E-02   -1.81219218E+01   -2.94679821E+01   -1.78145124E+01   
                   1.75000000E+02    1.00000000E+01   -6.85202264E-03    2.83180648E-02   -6.47789220E-03    3.76349330E-03   -2.35735797E+01   -3.53702398E+01   -2.32955180E+01   
                   1.80000000E+02    1.00000000E+01    8.13130667E-05    6.58108750E-04    2.44287233E-05    9.23433039E-05   -5.64302040E+01   -7.32600800E+01   -5.63410113E+01   
                   0.00000000E+00    1.50000000E+01    7.99199677E-05    6.34549525E-04   -4.68553719E-06   -1.90160684E-04   -5.67442947E+01   -6.72769052E+01   -5.63761765E+01   
                   5.00000000E+00    1.50000000E+01   -5.86446581E-03    2.76157333E-02    9.49786117E-03   -5.52909772E-03   -2.38472598E+01   -3.20419951E+01   -2.32344706E+01   
                   1.00000000E+01    1.50000000E+01    2.12159445E-02    4.82330227E-02    1.45428645E-02   -1.59237623E-02   -1.84269152E+01   -2.61868555E+01   -1.77543590E+01   
                   1.50000000E+01    1.50000000E+01    6.97203038E-02    7.93409851E-02    1.31718538E-02   -2.86107222E-02   -1.23869047E+01   -2.28965275E+01   -1.20169137E+01   
                   2.00000000E+01    1.50000000E+01    1.14908559E-01    1.30806270E-01    5.06320803E-03   -4.02952468E-02   -8.04548643E+00   -2.06888459E+01   -7.81539885E+00   
                   2.50000000E+01    1.50000000E+01    1.29946499E-01    1.97147017E-01   -8.45066715E-03   -4.80184057E-02   -5.39927028E+00   -1.91013331E+01   -5.21793606E+00   
                   3.00000000E+01    1.50000000E+01    9.88423726E-02    2.57675827E-01   -2.48205297E-02   -4.98836877E-02   -4.04430737E+00   -1.79421216E+01   -3.87080756E+00   
                   3.50000000E+01    1.50000000E+01    2.45699152E-02    2.84750572E-01   -4.10082439E-02   -4.54408571E-02   -3.74044918E+00   -1.71256432E+01   -3.54569323E+00   
                   4.00000000E+01    1.50000000E+01   -7.14250051E-02    2.55397755E-01   -5.42626172E-02   -3.56496779E-02   -4.39057768E+00   -1.66136387E+01   -4.13777778E+00   
                   4.50000000E+01    1.50000000E+01   -1.57476297E-01    1.60411075E-01   -6.27123376E-02   -2.24867886E-02   -5.82642002E+00   -1.63896004E+01   -5.46077815E+00   
                   5.00000000E+01    1.50000000E+01   -2.03307894E-01    7.16215937E-03   -6.56354591E-02   -8.36144855E-03   -6.69348454E+00   -1.64492703E+01   -6.25678014E+00   
                   5.50000000E+01    1.50000000E+01   -1.89868800E-01   -1.84033543E-01   -6.33893051E-02    4.46379073E-03   -4.41603431E+00   -1.68001534E+01   -4.17218425E+00   
                   6.00000000E+01    1.50000000E+01   -1.14077591E-01   -3.87293870E-01   -5.70911597E-02    1.42932853E-02   -7.39806904E-01   -1.74665549E+01   -6.48493228E-01   
                   6.50000000E+01    1.50000000E+01    1.20270511E-02   -5.78695372E-01   -4.81930584E-02    2.01897386E-02    2.38891992E+00   -1.85000168E+01    2.42416732E+00   
                   7.00000000E+01    1.50000000E+01    1.66037495E-01   -7.41263451E-01   -3.80871156E-02    2.19538452E-02    4.75010311E+00   -2.00005367E+01    4.76462403E+00   
                   7.50000000E+01    1.50000000E+01    3.21340500E-01   -8.66462493E-01   -2.78303043E-02    1.99661188E-02    6.45270927E+00   -2.21683398E+01    6.45867112E+00   
                   8.00000000E+01    1.50000000E+01    4.52649338E-01   -9.52735973E-01   -1.80189386E-02    1.49808845E-02    7.60142413E+00   -2.54653697E+01    7.60356701E+00   
                   8.50000000E+01    1.50000000E+01    5.39890960E-01   -1.00243722E+00   -8.79738940E-03    7.94473602E-03    8.26530933E+00   -3.13847940E+01    8.26578004E+00   
                   9.00000000E+01    1.50000000E+01    5.70394394E-01   -1.01857036E+00    3.68595408E-05   -1.22988744E-04    8.48247815E+00   -7.06911039E+01    8.48247820E+00   
                   9.50000000E+01    1.50000000E+01    5.39853372E-01   -1.00242189E+00    8.87175650E-03   -8.18595930E-03    8.26507035E+00   -3.12268239E+01    8.26555852E+00   
                   1.00000000E+02    1.50000000E+01    4.52576912E-01   -9.52705627E-01    1.80947120E-02   -1.52078897E-02    7.60094248E+00   -2.53901806E+01    7.60312301E+00   
                   1.05000000E+02    1.50000000E+01    3.21239080E-01   -8.66418024E-01    2.79066962E-02   -2.01697109E-02    6.45198593E+00   -2.21225704E+01    6.45801191E+00   
                   1.10000000E+02    1.50000000E+01    1.65916474E-01   -7.41206677E-01    3.81610073E-02   -2.21256831E-02    4.74916721E+00   -1.99709551E+01    4.76379035E+00   
                   1.15000000E+02    1.50000000E+01    1.18995214E-02   -5.78629368E-01    4.82586418E-02   -2.03233768E-02    2.38789005E+00   -1.84813823E+01    2.42329675E+00   
                   1.20000000E+02    1.50000000E+01   -1.14195460E-01   -3.87223046E-01    5.71402368E-02   -1.43855590E-02   -7.40551562E-01   -1.74562199E+01   -6.49007071E-01   
                   1.25000000E+02    1.50000000E+01   -1.89959532E-01   -1.83963301E-01    6.34124313E-02   -4.51619038E-03   -4.41549931E+00   -1.67964951E+01   -4.17147867E+00   
                   1.30000000E+02    1.50000000E+01   -2.03355637E-01    7.22624051E-03    6.56239441E-02    8.34196074E-03   -6.69135090E+00   -1.64510929E+01   -6.25502483E+00   
                   1.35000000E+02    1.50000000E+01   -1.57470463E-01    1.60464372E-01    6.26608227E-02    2.24880985E-02   -5.82510829E+00   -1.63958668E+01   -5.46007783E+00   
                   1.40000000E+02    1.50000000E+01   -7.13636318E-02    2.55437706E-01    5.41715959E-02    3.56563264E-02   -4.38985864E+00   -1.66233297E+01   -4.13764674E+00   
                   1.45000000E+02    1.50000000E+01    2.46783415E-02    2.84777320E-01    4.08856399E-02    4.54372060E-02   -3.73935549E+00   -1.71376833E+01   -3.54517468E+00   
                   1.50000000E+02    1.50000000E+01    9.89797094E-02    2.57692070E-01    2.46814611E-02    4.98577239E-02   -4.04228144E+00   -1.79553953E+01   -3.86937978E+00   
                   1.55000000E+02    1.50000000E+01    1.30088736E-01    1.97157019E-01    8.31493291E-03    4.79650254E-02   -5.39608314E+00   -1.91148722E+01   -5.21543166E+00   
                   1.60000000E+02    1.50000000E+01    1.15031900E-01    1.30814386E-01   -5.17562890E-03    4.02178296E-02   -8.04112129E+00   -2.07022483E+01   -7.81194874E+00   
                   1.65000000E+02    1.50000000E+01    6.98078131E-02    7.93502747E-02   -1.32461426E-02    2.85202838E-02   -1.23815807E+01   -2.29105774E+01   -1.20131687E+01   
                   1.70000000E+02    1.50000000E+01    2.12624936E-02    4.82445357E-02   -1.45738207E-02    1.58358069E-02   -1.84220876E+01   -2.62045606E+01   -1.77527569E+01   
                   1.75000000E+02    1.50000000E+01   -5.85084158E-03    2.76287435E-02   -9.49180946E-03    5.45913679E-03   -2.38442142E+01   -3.20738863E+01   -2.32360065E+01   
                   1.80000000E+02    1.50000000E+01    7.88745431E-05    6.47556198E-04    3.14226628E-05    1.49349868E-04   -5.65724475E+01   -6.91897449E+01   -5.63410113E+01   
                   0.00000000E+00    2.00000000E+01    7.92074766E-05    6.15561277E-04   -1.16331914E-05   -2.44741700E-04   -5.70052112E+01   -6.50779951E+01   -5.63761765E+01   
                   5.00000000E+00    2.00000000E+01   -4.50656348E-03    2.67070810E-02    1.22425967E-02   -6.99456113E-03   -2.42074969E+01   -2.98776814E+01   -2.31660153E+01   
                   1.00000000E+01    2.00000000E+01    2.18248784E-02    4.53481475E-02    1.88939427E-02   -2.00392100E-02   -1.88259814E+01   -2.40621078E+01   -1.76882404E+01   
                   1.50000000E+01    2.00000000E+01    6.81263689E-02    7.37610879E-02    1.75173732E-02   -3.58488600E-02   -1.28265318E+01   -2.08425275E+01   -1.21897963E+01   
                   2.00000000E+01    2.00000000E+01    1.11895257E-01    1.23541697E-01    7.81700930E-03   -5.02469807E-02   -8.42414882E+00   -1.87358977E+01   -8.03765596E+00   
                   2.50000000E+01    2.00000000E+01    1.28757342E-01    1.92162534E-01   -8.38690959E-03   -5.95669512E-02   -5.57802075E+00   -1.72765956E+01   -5.29381109E+00   
                   3.00000000E+01    2.00000000E+01    1.03758468E-01    2.61976504E-01   -2.77854900E-02   -6.15867005E-02   -3.86388698E+00   -1.62675906E+01   -3.62110400E+00   
                   3.50000000E+01    2.00000000E+01    3.86052001E-02    3.06888622E-01   -4.65738682E-02   -5.59670328E-02   -3.05415313E+00   -1.56180222E+01   -2.81992799E+00   
                   4.00000000E+01    2.00000000E+01   -4.84462366E-02    3.02874970E-01   -6.14591141E-02   -4.41139606E-02   -3.12696948E+00   -1.52855178E+01   -2.87049587E+00   
                   4.50000000E+01    2.00000000E+01   -1.29486667E-01    2.37103957E-01   -7.03727841E-02   -2.85889589E-02   -4.22961463E+00   -1.52504555E+01   -3.89918866E+00   
                   5.00000000E+01    2.00000000E+01   -1.77027287E-01    1.11897267E-01   -7.27253508E-02   -1.23212921E-02   -6.44130324E+00   -1.55053354E+01   -5.93344692E+00   
                   5.50000000E+01    2.00000000E+01   -1.72866128E-01   -5.72110231E-02   -6.92207643E-02    2.10761933E-03   -7.65636068E+00   -1.60532036E+01   -7.06963700E+00   
                   6.00000000E+01    2.00000000E+01   -1.12747875E-01   -2.47382932E-01   -6.13860744E-02    1.29218417E-02   -4.17490030E+00   -1.69122610E+01   -3.94961378E+00   
                   6.50000000E+01    2.00000000E+01   -6.14423924E-03   -4.35289774E-01   -5.10202169E-02    1.92940261E-02   -8.55212295E-02   -1.81266160E+01   -1.78681165E-02   