##File Type: Far field
##File Format: 5
##Source: Yagi_6_element_V0_1_NoPanel_element_spacing_optimised
##Date: 2018-08-01 09:12:31
** File exported by POSTFEKO version 2018-319328 (x64)

#Configuration Name: StandardConfiguration1
#Request Name: Yagi_FarField
#Frequency: 5.80000000E+09
#Coordinate System: Spherical
#No. of Theta Samples: 37
#No. of Phi Samples: 73
#Result Type: Directivity
#No. of Header Lines: 1
#                 "Theta"           "Phi"             "Re(Etheta)"      "Im(Etheta)"      "Re(Ephi)"        "Im(Ephi)"        "Directivity(Theta)""Directivity(Phi)""Directivity(Total)"
                   0.00000000E+00    0.00000000E+00    1.95200453E-05    3.15597993E-05   -5.25166798E-05   -3.86804367E-04   -8.08251915E+01   -6.03855436E+01   -6.03464717E+01   
                   5.00000000E+00    0.00000000E+00   -2.83761858E-02    3.51593194E-02   -5.24231482E-05   -3.86879758E-04   -1.91154478E+01   -6.03841611E+01   -1.91151235E+01   
                   1.00000000E+01    0.00000000E+00   -5.68354442E-02    7.03935556E-02   -5.22476652E-05   -3.87026433E-04   -1.30842355E+01   -6.03814510E+01   -1.30841546E+01   
                   1.50000000E+01    0.00000000E+00   -8.54056137E-02    1.05819017E-01   -5.19681977E-05   -3.86986191E-04   -9.54491047E+00   -6.03831676E+01   -9.54487466E+00   
                   2.00000000E+01    0.00000000E+00   -1.14102481E-01    1.41477507E-01   -5.15485017E-05   -3.86340066E-04   -7.02492097E+00   -6.03986663E+01   -7.02490100E+00   
                   2.50000000E+01    0.00000000E+00   -1.42895988E-01    1.77348557E-01   -5.09399052E-05   -3.84526626E-04   -5.06538741E+00   -6.04406149E+01   -5.06537482E+00   
                   3.00000000E+01    0.00000000E+00   -1.71697936E-01    2.13332866E-01   -5.00839225E-05   -3.80869199E-04   -3.46460159E+00   -6.05247251E+01   -3.46459305E+00   
                   3.50000000E+01    0.00000000E+00   -2.00352531E-01    2.49239671E-01   -4.89157517E-05   -3.74612957E-04   -2.11757471E+00   -6.06696182E+01   -2.11756865E+00   
                   4.00000000E+01    0.00000000E+00   -2.28630713E-01    2.84779288E-01   -4.73686494E-05   -3.64972080E-04   -9.64076335E-01   -6.08969594E+01   -9.64071924E-01   
                   4.50000000E+01    0.00000000E+00   -2.56229215E-01    3.19562052E-01   -4.53790693E-05   -3.51186114E-04    3.25304441E-02   -6.12320366E+01    3.25336899E-02   
                   5.00000000E+01    0.00000000E+00   -2.82775134E-01    3.53104651E-01   -4.28923252E-05   -3.32583015E-04    8.95305973E-01   -6.17050570E+01    8.95308359E-01   
                   5.50000000E+01    0.00000000E+00   -3.07836539E-01    3.84844476E-01   -3.98683980E-05   -3.08644714E-04    1.63901537E+00   -6.23536551E+01    1.63901711E+00   
                   6.00000000E+01    0.00000000E+00   -3.30939127E-01    4.14161951E-01   -3.62873864E-05   -2.79069405E-04    2.27315026E+00   -6.32276381E+01    2.27315149E+00   
                   6.50000000E+01    0.00000000E+00   -3.51588374E-01    4.40410044E-01   -3.21540209E-05   -2.43823745E-04    2.80377001E+00   -6.43983006E+01    2.80377084E+00   
                   7.00000000E+01    0.00000000E+00   -3.69295949E-01    4.62949288E-01   -2.75006502E-05   -2.03177978E-04    3.23467832E+00   -6.59783217E+01    3.23467884E+00   
                   7.50000000E+01    0.00000000E+00   -3.83608496E-01    4.81185804E-01   -2.23881868E-05   -1.57717889E-04    3.56820023E+00   -6.81704388E+01    3.56820052E+00   
                   8.00000000E+01    0.00000000E+00   -3.94136425E-01    4.94609205E-01   -1.69046729E-05   -1.08329627E-04    3.80570375E+00   -7.14152650E+01    3.80570388E+00   
                   8.50000000E+01    0.00000000E+00   -4.00580048E-01    5.02826925E-01   -1.11613791E-05   -5.61564170E-05    3.94794818E+00   -7.70584505E+01    3.94794822E+00   
                   9.00000000E+01    0.00000000E+00   -4.02750485E-01    5.05591625E-01   -5.28665183E-06   -2.52975740E-06    3.99530655E+00   -9.68556384E+01    3.99530655E+00   
                   9.50000000E+01    0.00000000E+00   -4.00583189E-01    5.02818892E-01    5.81973797E-07    5.11188065E-05    3.94788974E+00   -7.80425214E+01    3.94788977E+00   
                   1.00000000E+02    0.00000000E+00   -3.94142613E-01    4.94593348E-01    6.30663981E-06    1.03356472E-04    3.80558639E+00   -7.19118051E+01    3.80558651E+00   
                   1.05000000E+02    0.00000000E+00   -3.83617548E-01    4.81162527E-01    1.17581122E-05    1.52848093E-04    3.56802298E+00   -6.85038733E+01    3.56802325E+00   
                   1.10000000E+02    0.00000000E+00   -3.69307607E-01    4.62919175E-01    1.68239001E-05    1.98444772E-04    3.23443968E+00   -6.62308022E+01    3.23444017E+00   
                   1.15000000E+02    0.00000000E+00   -3.51602316E-01    4.40373829E-01    2.14147529E-05    2.39253185E-04    2.80346786E+00   -6.46028892E+01    2.80346865E+00   
                   1.20000000E+02    0.00000000E+00   -3.30954989E-01    4.14120485E-01    2.54689614E-05    2.74679494E-04    2.27278176E+00   -6.34009950E+01    2.27278293E+00   
                   1.25000000E+02    0.00000000E+00   -3.07853937E-01    3.84798688E-01    2.89541735E-05    3.04445170E-04    1.63857673E+00   -6.25054117E+01    1.63857840E+00   
                   1.30000000E+02    0.00000000E+00   -2.82793681E-01    3.53055511E-01    3.18667419E-05    3.28575624E-04    8.94792135E-01   -6.18413328E+01    8.94794448E-01   
                   1.35000000E+02    0.00000000E+00   -2.56248543E-01    3.19510531E-01    3.42288946E-05    3.47365600E-04    3.19345123E-02   -6.13569964E+01    3.19376665E-02   
                   1.40000000E+02    0.00000000E+00   -2.28650488E-01    2.84726326E-01    3.60842204E-05    3.61327349E-04   -9.64764094E-01   -6.10135834E+01   -9.64759800E-01   
                   1.45000000E+02    0.00000000E+00   -2.00372461E-01    2.49186145E-01    3.74920697E-05    3.71128568E-04   -2.11836862E+00   -6.07801139E+01   -2.11836271E+00   
                   1.50000000E+02    0.00000000E+00   -1.71717781E-01    2.13279566E-01    3.85214759E-05    3.77526901E-04   -3.46552384E+00   -6.06307579E+01   -3.46551550E+00   
                   1.55000000E+02    0.00000000E+00   -1.42915563E-01    1.77296168E-01    3.92451319E-05    3.81306772E-04   -5.06647468E+00   -6.05434448E+01   -5.06646238E+00   
                   1.60000000E+02    0.00000000E+00   -1.14121655E-01    1.41426597E-01    3.97338301E-05    3.83222765E-04   -7.02623931E+00   -6.04992339E+01   -7.02621979E+00   
                   1.65000000E+02    0.00000000E+00   -8.54243107E-02    1.05770031E-01    4.00516416E-05    3.83952087E-04   -9.54659497E+00   -6.04821555E+01   -9.54655995E+00   
                   1.70000000E+02    0.00000000E+00   -5.68536361E-02    7.03468156E-02    4.02519778E-05    3.84057080E-04   -1.30866290E+01   -6.04793377E+01   -1.30865498E+01   
                   1.75000000E+02    0.00000000E+00   -2.83938878E-02    3.51150337E-02    4.03745841E-05    3.83957604E-04   -1.91199331E+01   -6.04812752E+01   -1.91196157E+01   
                   1.80000000E+02    0.00000000E+00    2.25836853E-06   -1.01685441E-05    4.04434527E-05    3.83912444E-04   -9.18604203E+01   -6.04821235E+01   -6.04789627E+01   
                   0.00000000E+00    5.00000000E+00    1.48686354E-05   -2.27251725E-06   -5.40181221E-05   -3.88083078E-04   -8.86689919E+01   -6.03528668E+01   -6.03464717E+01   
                   5.00000000E+00    5.00000000E+00   -2.83792271E-02    3.54110761E-02   -6.43347121E-05   -3.89677368E-04   -1.90774498E+01   -6.02838031E+01   -1.90771209E+01   
                   1.00000000E+01    5.00000000E+00   -5.68441244E-02    7.14867335E-02   -7.43044574E-05   -3.90910776E-04   -1.30022009E+01   -6.02190008E+01   -1.30021185E+01   
                   1.50000000E+01    5.00000000E+00   -8.54426459E-02    1.08280519E-01   -8.38050348E-05   -3.91512544E-04   -9.42142515E+00   -6.01652181E+01   -9.42138855E+00   
                   2.00000000E+01    5.00000000E+00   -1.14201745E-01    1.45797582E-01   -9.26709743E-05   -3.91071236E-04   -6.86188719E+00   -6.01323111E+01   -6.86186674E+00   
                   2.50000000E+01    5.00000000E+00   -1.43097634E-01    1.83972290E-01   -1.00682363E-04   -3.89054340E-04   -4.86488205E+00   -6.01329673E+01   -4.86486914E+00   
                   3.00000000E+01    5.00000000E+00   -1.72043326E-01    2.22650610E-01   -1.07560748E-04   -3.84836634E-04   -3.22897127E+00   -6.01825046E+01   -3.22896251E+00   
                   3.50000000E+01    5.00000000E+00   -2.00879476E-01    2.61576466E-01   -1.12973905E-04   -3.77737347E-04   -1.84941502E+00   -6.02988301E+01   -1.84940881E+00   
                   4.00000000E+01    5.00000000E+00   -2.29369447E-01    3.00383631E-01   -1.16550544E-04   -3.67065451E-04   -6.66179672E-01   -6.05026698E+01   -6.66175163E-01   
                   4.50000000E+01    5.00000000E+00   -2.57199475E-01    3.38594688E-01   -1.17905135E-04   -3.52171471E-04    3.57236180E-01   -6.08182255E+01    3.57239493E-01   
                   5.00000000E+01    5.00000000E+00   -2.83984605E-01    3.75628320E-01   -1.16671774E-04   -3.32503032E-04    1.24381822E+00   -6.12745117E+01    1.24382065E+00   
                   5.50000000E+01    5.00000000E+00   -3.09280710E-01    4.10815681E-01   -1.12544481E-04   -3.07660240E-04    2.00831162E+00   -6.19078479E+01    2.00831339E+00   
                   6.00000000E+01    5.00000000E+00   -3.32602431E-01    4.43425878E-01   -1.05319846E-04   -2.77446043E-04    2.66023303E+00   -6.27664886E+01    2.66023428E+00   
                   6.50000000E+01    5.00000000E+00   -3.53446280E-01    4.72699670E-01   -9.49366730E-05   -2.41906267E-04    3.20569973E+00   -6.39196271E+01    3.20570057E+00   
                   7.00000000E+01    5.00000000E+00   -3.71317527E-01    4.97889472E-01   -8.15067182E-05   -2.01354199E-04    3.64859321E+00   -6.54764878E+01    3.64859374E+00   
                   7.50000000E+01    5.00000000E+00   -3.85758963E-01    5.18302815E-01   -6.53309516E-05   -1.56375545E-04    3.99132319E+00   -6.76326357E+01    3.99132349E+00   
                   8.00000000E+01    5.00000000E+00   -3.96379215E-01    5.33345673E-01   -4.68972049E-05   -1.07811317E-04    4.23533740E+00   -7.08087922E+01    4.23533754E+00   
                   8.50000000E+01    5.00000000E+00   -4.02878152E-01    5.42561715E-01   -2.68574240E-05   -5.67184998E-05    4.38145973E+00   -7.62616000E+01    4.38145977E+00   
                   9.00000000E+01    5.00000000E+00   -4.05067019E-01    5.45663647E-01   -5.98573088E-06   -4.31092481E-06    4.43010517E+00   -9.48576680E+01    4.43010518E+00   
                   9.50000000E+01    5.00000000E+00   -4.02881377E-01    5.42553449E-01    1.48784590E-05    4.81147180E-05    4.38139914E+00   -7.81725302E+01    4.38139917E+00   
                   1.00000000E+02    5.00000000E+00   -3.96385561E-01    5.33329363E-01    3.48955296E-05    9.92608887E-05    4.23521578E+00   -7.17730567E+01    4.23521588E+00   
                   1.05000000E+02    5.00000000E+00   -3.85768231E-01    5.18278895E-01    5.32908301E-05    1.47911280E-04    3.99113962E+00   -6.82846250E+01    3.99113988E+00   
                   1.10000000E+02    5.00000000E+00   -3.71329433E-01    4.97858564E-01    6.94117634E-05    1.93005019E-04    3.64834626E+00   -6.59750837E+01    3.64834674E+00   
                   1.15000000E+02    5.00000000E+00   -3.53460472E-01    4.72662555E-01    8.27700245E-05    2.33696098E-04    3.20538738E+00   -6.43284377E+01    3.20538814E+00   
                   1.20000000E+02    5.00000000E+00   -3.32618512E-01    4.43383459E-01    9.30646847E-05    2.69393061E-04    2.65985250E+00   -6.31173384E+01    2.65985365E+00   
                   1.25000000E+02    5.00000000E+00   -3.09298261E-01    4.10768938E-01    1.00184846E-04    2.99776494E-04    2.00785917E+00   -6.22189153E+01    2.00786081E+00   
                   1.30000000E+02    5.00000000E+00   -2.84003208E-01    3.75578272E-01    1.04193577E-04    3.24794421E-04    1.24328879E+00   -6.15571197E+01    1.24329107E+00   
                   1.35000000E+02    5.00000000E+00   -2.57218735E-01    3.38542348E-01    1.05297239E-04    3.44638066E-04    3.56622785E-01   -6.10798473E+01    3.56625905E-01   
                   1.40000000E+02    5.00000000E+00   -2.29389006E-01    3.00329971E-01    1.03805749E-04    3.59702122E-04   -6.66886961E-01   -6.07484188E+01   -6.66882699E-01   
                   1.45000000E+02    5.00000000E+00   -2.00899031E-01    2.61522387E-01    1.00089726E-04    3.70534620E-04   -1.85023087E+00   -6.05322624E+01   -1.85022498E+00   
                   1.50000000E+02    5.00000000E+00   -1.72062632E-01    2.22596914E-01    9.45398661E-05    3.77781698E-04   -3.22991842E+00   -6.04060796E+01   -3.22991010E+00   
                   1.55000000E+02    5.00000000E+00   -1.43116510E-01    1.83919665E-01    8.75327220E-05    3.82132056E-04   -4.86599806E+00   -6.03483303E+01   -4.86598577E+00   
                   1.60000000E+02    5.00000000E+00   -1.14220077E-01    1.45746590E-01    7.94054779E-05    3.84265044E-04   -6.86323955E+00   -6.03404825E+01   -6.86322005E+00   
                   1.65000000E+02    5.00000000E+00   -8.54603814E-02    1.08231595E-01    7.04408565E-05    3.84805145E-04   -9.42315163E+00   -6.03667364E+01   -9.42311668E+00   
                   1.70000000E+02    5.00000000E+00   -5.68612656E-02    7.14401858E-02    6.08620005E-05    3.84284539E-04   -1.30046506E+01   -6.04140481E+01   -1.30045717E+01   
                   1.75000000E+02    5.00000000E+00   -2.83958254E-02    3.53670984E-02    5.08362773E-05    3.83114449E-04   -1.90820292E+01   -6.04723260E+01   -1.90817139E+01   
                   1.80000000E+02    5.00000000E+00   -1.27510446E-06   -4.35900239E-05    4.04863837E-05    3.81565294E-04   -7.94232416E+01   -6.05346993E+01   -6.04789627E+01   
                   0.00000000E+00    1.00000000E+01    1.01040662E-05   -3.60875385E-05   -5.51084538E-05   -3.86408242E-04   -8.07397822E+01   -6.03863231E+01   -6.03464717E+01   
                   5.00000000E+00    1.00000000E+01   -2.83904333E-02    3.56534598E-02   -7.53890568E-05   -3.89084277E-04   -1.90399448E+01   -6.02537636E+01   -1.90396164E+01   
                   1.00000000E+01    1.00000000E+01   -5.69023969E-02    7.25061706E-02   -9.48691662E-05   -3.90168873E-04   -1.29230505E+01   -6.01401885E+01   -1.29229681E+01   
                   1.50000000E+01    1.00000000E+01   -8.56233309E-02    1.10477217E-01   -1.13485248E-04   -3.89407392E-04   -9.30621516E+00   -6.00525901E+01   -9.30617859E+00   
                   2.00000000E+01    1.00000000E+01   -1.14590784E-01    1.49449002E-01   -1.31092133E-04   -3.86495450E-04   -6.71656994E+00   -5.99988901E+01   -6.71654954E+00   
                   2.50000000E+01    1.00000000E+01   -1.43765224E-01    1.89222003E-01   -1.47420716E-04   -3.81097260E-04   -4.69625862E+00   -5.99883663E+01   -4.69624578E+00   
                   3.00000000E+01    1.00000000E+01   -1.73019812E-01    2.29509220E-01   -1.62052144E-04   -3.72866520E-04   -3.04435447E+00   -6.00322237E+01   -3.04434579E+00   
                   3.50000000E+01    1.00000000E+01   -2.02137858E-01    2.69934401E-01   -1.74413644E-04   -3.61468782E-04   -1.65616590E+00   -6.01442876E+01   -1.65615975E+00   
                   4.00000000E+01    1.00000000E+01   -2.30818047E-01    3.10034272E-01   -1.83799919E-04   -3.46604358E-04   -4.71244175E-01   -6.03418328E+01   -4.71239700E-01   
                   4.50000000E+01    1.00000000E+01   -2.58686792E-01    3.49265090E-01   -1.89421641E-04   -3.28031029E-04    5.47735182E-01   -6.06466360E+01    5.47738480E-01   
                   5.00000000E+01    1.00000000E+01   -2.85316365E-01    3.87013936E-01   -1.90479182E-04   -3.05585942E-04    1.42490214E+00   -6.10864679E+01    1.42490457E+00   
                   5.50000000E+01    1.00000000E+01   -3.10246900E-01    4.22615109E-01   -1.86255548E-04   -2.79206003E-04    2.17636437E+00   -6.16974974E+01    2.17636615E+00   
                   6.00000000E+01    1.00000000E+01   -3.33010128E-01    4.55371809E-01   -1.76218288E-04   -2.48945755E-04    2.81311166E+00   -6.25286141E+01    2.81311293E+00   
                   6.50000000E+01    1.00000000E+01   -3.53152721E-01    4.84582857E-01   -1.60116941E-04   -2.14991207E-04    3.34274219E+00   -6.36499076E+01    3.34274306E+00   
                   7.00000000E+01    1.00000000E+01   -3.70257484E-01    5.09573563E-01   -1.38061125E-04   -1.77667698E-04    3.77053465E+00   -6.51709035E+01    3.77053520E+00   
                   7.50000000E+01    1.00000000E+01   -3.83961202E-01    5.29729073E-01   -1.10565465E-04   -1.37439717E-04    4.10013595E+00   -6.72850844E+01    4.10013627E+00   
                   8.00000000E+01    1.00000000E+01   -3.93968574E-01    5.44527783E-01   -7.85512028E-05   -9.49010316E-05    4.33401154E+00   -7.04029829E+01    4.33401168E+00   
                   8.50000000E+01    1.00000000E+01   -4.00062254E-01    5.53571899E-01   -4.33002312E-05   -5.07544015E-05    4.47374036E+00   -7.57302012E+01    4.47374040E+00   
                   9.00000000E+01    1.00000000E+01   -4.02109408E-01    5.56612067E-01   -6.36443221E-06   -5.78154439E-06    4.52020117E+00   -9.35263590E+01    4.52020117E+00   
                   9.50000000E+01    1.00000000E+01   -4.00065343E-01    5.53563398E-01    3.05596880E-05    3.91944873E-05    4.47367575E+00   -7.82875489E+01    4.47367577E+00   
                   1.00000000E+02    1.00000000E+01   -3.93974659E-01    5.44511018E-01    6.57753755E-05    8.33510666E-05    4.33388210E+00   -7.16939950E+01    4.33388221E+00   
                   1.05000000E+02    1.00000000E+01   -3.83970099E-01    5.29704507E-01    9.77301309E-05    1.25907696E-04    4.09994120E+00   -6.81656900E+01    4.09994146E+00   
                   1.10000000E+02    1.00000000E+01   -3.70268930E-01    5.09541861E-01    1.25141427E-04    1.66163458E-04    3.77027377E+00   -6.58527620E+01    3.77027424E+00   
                   1.15000000E+02    1.00000000E+01   -3.53166387E-01    4.84544851E-01    1.47087867E-04    2.03526760E-04    3.34241386E+00   -6.42172977E+01    3.34241462E+00   
                   1.20000000E+02    1.00000000E+01   -3.33025636E-01    4.55328459E-01    1.63055671E-04    2.37535222E-04    2.81271387E+00   -6.30233873E+01    2.81271500E+00   
                   1.25000000E+02    1.00000000E+01   -3.10263844E-01    4.22567457E-01    1.72937489E-04    2.67865110E-04    2.17589411E+00   -6.21432362E+01    2.17589572E+00   
                   1.30000000E+02    1.00000000E+01   -2.85334333E-01    3.86963056E-01    1.76987677E-04    2.94331100E-04    1.42435494E+00   -6.14975189E+01    1.42435716E+00   
                   1.35000000E+02    1.00000000E+01   -2.58705384E-01    3.49212045E-01    1.75744131E-04    3.16878124E-04    5.47104481E-01   -6.10321257E+01    5.47107500E-01   
                   1.40000000E+02    1.00000000E+01   -2.30836895E-01    3.09980072E-01    1.69930499E-04    3.35567414E-04   -4.71968168E-01   -6.07076907E+01   -4.71964054E-01   
                   1.45000000E+02    1.00000000E+01   -2.02156643E-01    2.69879970E-01    1.60353705E-04    3.50558721E-04   -1.65699803E+00   -6.04943722E+01   -1.65699236E+00   
                   1.50000000E+02    1.00000000E+01   -1.73038273E-01    2.29455370E-01    1.47810359E-04    3.62090175E-04   -3.04531803E+00   -6.03689993E+01   -3.04530999E+00   
                   1.55000000E+02    1.00000000E+01   -1.43783168E-01    1.89169418E-01    1.33012352E-04    3.70456753E-04   -4.69739212E+00   -6.03133294E+01   -4.69738020E+00   
                   1.60000000E+02    1.00000000E+01   -1.14608093E-01    1.49398231E-01    1.16537792E-04    3.75987972E-04   -6.71794236E+00   -6.03128383E+01   -6.71792338E+00   
                   1.65000000E+02    1.00000000E+01   -8.56399547E-02    1.10428672E-01    9.88092051E-05    3.79025315E-04   -9.30796656E+00   -6.03557810E+01   -9.30793244E+00   
                   1.70000000E+02    1.00000000E+01   -5.69183558E-02    7.24601362E-02    8.00974765E-05    3.79900103E-04   -1.29255343E+01   -6.04324221E+01   -1.29254572E+01   
                   1.75000000E+02    1.00000000E+01   -2.84058041E-02    3.56101089E-02    6.05476196E-05    3.78912713E-04   -1.90445811E+01   -6.05344150E+01   -1.90442729E+01   
                   1.80000000E+02    1.00000000E+01   -4.79887326E-06   -7.66797574E-05    4.02211888E-05    3.76314202E-04   -7.45041072E+01   -6.06543548E+01   -6.04789627E+01   
                   0.00000000E+00    1.50000000E+01    5.26259900E-06   -6.96279118E-05   -5.57793769E-05   -3.81792605E-04   -7.53342921E+01   -6.04864243E+01   -6.03464717E+01   
                   5.00000000E+00    1.50000000E+01   -2.84089851E-02    3.58838420E-02   -8.53069027E-05   -3.85098864E-04   -1.90034375E+01   -6.02952053E+01   -1.90031149E+01   
                   1.00000000E+01    1.50000000E+01   -5.69992668E-02    7.34297884E-02   -1.13556121E-04   -3.84850154E-04   -1.28491336E+01   -6.01463147E+01   -1.28490527E+01   
                   1.50000000E+01    1.50000000E+01   -8.58885936E-02    1.12323390E-01   -1.40800444E-04   -3.80873843E-04   -9.20583308E+00   -6.00427645E+01   -9.20579726E+00   
                   2.00000000E+01    1.50000000E+01   -1.15069669E-01    1.52207500E-01   -1.67143542E-04   -3.73161775E-04   -6.60271210E+00   -5.99826818E+01   -6.60269216E+00   
                   2.50000000E+01    1.50000000E+01   -1.44386477E-01    1.92642461E-01   -1.92402460E-04   -3.61855063E-04   -4.58352160E+00   -5.99626968E+01   -4.58350901E+00   
                   3.00000000E+01    1.50000000E+01   -1.73540410E-01    2.33138793E-01   -2.16034419E-04   -3.47209020E-04   -2.94767499E+00   -5.99816870E+01   -2.94766640E+00   
                   3.50000000E+01    1.50000000E+01   -2.02118875E-01    2.73185688E-01   -2.37120843E-04   -3.29545311E-04   -1.58953817E+00   -6.00444305E+01   -1.58953197E+00   
                   4.00000000E+01    1.50000000E+01   -2.29640312E-01    3.12270346E-01   -2.54415534E-04   -3.09200949E-04   -4.46627551E-01   -6.01644830E+01   -4.46622917E-01   
                   4.50000000E+01    1.50000000E+01   -2.55606866E-01    3.49886339E-01   -2.66455202E-04   -2.86484501E-04    5.21224105E-01   -6.03657481E+01    5.21227645E-01   
                   5.00000000E+01    1.50000000E+01   -2.79555217E-01    3.85532675E-01   -2.71720948E-04   -2.61648241E-04    1.34147476E+00   -6.06828913E+01    1.34147749E+00   
                   5.50000000E+01    1.50000000E+01   -3.01097237E-01    4.18708012E-01   -2.68830745E-04   -2.34881169E-04    2.03372519E+00   -6.11616703E+01    2.03372727E+00   
                   6.00000000E+01    1.50000000E+01   -3.19944872E-01    4.48905798E-01   -2.56737123E-04   -2.06322687E-04    2.61233900E+00   -6.18610815E+01    2.61234055E+00   
                   6.50000000E+01    1.50000000E+01   -3.35917123E-01    4.75615689E-01   -2.34902501E-04   -1.76091711E-04    3.08794671E+00   -6.28602568E+01    3.08794782E+00   
                   7.00000000E+01    1.50000000E+01   -3.48930445E-01    4.98334656E-01   -2.03427167E-04   -1.44322535E-04    3.46837374E+00   -6.42759843E+01    3.46837447E+00   
                   7.50000000E+01    1.50000000E+01   -3.58976558E-01    5.16588272E-01   -1.63111224E-04   -1.11197595E-04    3.75926512E+00   -6.63073747E+01    3.75926555E+00   
                   8.00000000E+01    1.50000000E+01   -3.66093267E-01    5.29959634E-01   -1.15440647E-04   -7.69686963E-05    3.96454221E+00   -6.93702279E+01    3.96454241E+00   
                   8.50000000E+01    1.50000000E+01   -3.70334257E-01    5.38121090E-01   -6.24973858E-05   -4.19615389E-05    4.08674957E+00   -7.46814008E+01    4.08674962E+00   
                   9.00000000E+01    1.50000000E+01   -3.71743273E-01    5.40862800E-01   -6.80291068E-06   -6.56259900E-06    4.12730873E+00   -9.27038841E+01    4.12730873E+00   
                   9.50000000E+01    1.50000000E+01   -3.70336892E-01    5.38112541E-01    4.88875176E-05    2.88084233E-05    4.08667579E+00   -7.71362548E+01    4.08667583E+00   
                   1.00000000E+02    1.50000000E+01   -3.66098479E-01    5.29942769E-01    1.01816880E-04    6.37341782E-05    3.96439504E+00   -7.06224196E+01    3.96439519E+00   
                   1.05000000E+02    1.50000000E+01   -3.58984228E-01    5.16563547E-01    1.49458811E-04    9.78350930E-05    3.75904522E+00   -6.71754792E+01    3.75904557E+00   
                   1.10000000E+02    1.50000000E+01   -3.48940400E-01    4.98302732E-01    1.89724398E-04    1.30796467E-04    3.46808188E+00   -6.49635027E+01    3.46808251E+00   
                   1.15000000E+02    1.50000000E+01   -3.35929134E-01    4.75577401E-01    2.21120212E-04    1.62380770E-04    3.08758357E+00   -6.34489603E+01    3.08758453E+00   
                   1.20000000E+02    1.50000000E+01   -3.19958659E-01    4.48862123E-01    2.42839980E-04    1.92421923E-04    2.61190470E+00   -6.23921013E+01    2.61190607E+00   
                   1.25000000E+02    1.50000000E+01   -3.01112483E-01    4.18660018E-01    2.54780174E-04    2.20802543E-04    2.03321887E+00   -6.16583659E+01    2.03322073E+00   
                   1.30000000E+02    1.50000000E+01   -2.79571572E-01    3.85481476E-01    2.57479231E-04    2.47419457E-04    1.34089390E+00   -6.11591898E+01    1.34089634E+00   
                   1.35000000E+02    1.50000000E+01   -2.55623964E-01    3.49833045E-01    2.51990016E-04    2.72146150E-04    5.20563669E-01   -6.08296980E+01    5.20566851E-01   
                   1.40000000E+02    1.50000000E+01   -2.29657789E-01    3.12216013E-01    2.39704103E-04    2.94802252E-04   -4.47376356E-01   -6.06200364E+01   -4.47372182E-01   
                   1.45000000E+02    1.50000000E+01   -2.02136390E-01    2.73131277E-01    2.22152937E-04    3.15138984E-04   -1.59038986E+00   -6.04926255E+01   -1.59038427E+00   
                   1.50000000E+02    1.50000000E+01   -1.73557665E-01    2.33085140E-01    2.00813668E-04    3.32845936E-04   -2.94865326E+00   -6.04216932E+01   -2.94864548E+00   
                   1.55000000E+02    1.50000000E+01   -1.44403235E-01    1.92590258E-01    1.76945787E-04    3.47579415E-04   -4.58466603E+00   -6.03927992E+01   -4.58465463E+00   
                   1.60000000E+02    1.50000000E+01   -1.15085770E-01    1.52157284E-01    1.51478884E-04    3.59007315E-04   -6.60409342E+00   -6.04010623E+01   -6.60407530E+00   
                   1.65000000E+02    1.50000000E+01   -8.59039653E-02    1.12275554E-01    1.24963215E-04    3.66861554E-04   -9.20759360E+00   -6.04479064E+01   -9.20756096E+00   
                   1.70000000E+02    1.50000000E+01   -5.70139230E-02    7.33845921E-02    9.75850580E-05    3.70987390E-04   -1.28516295E+01   -6.05369633E+01   -1.28515555E+01   
                   1.75000000E+02    1.50000000E+01   -2.84230151E-02    3.58414346E-02    6.92399133E-05    3.71379725E-04   -1.90080931E+01   -6.06699393E+01   -1.90077969E+01   
                   1.80000000E+02    1.50000000E+01   -8.28611984E-06   -1.09185912E-04    3.96498863E-05    3.68199132E-04   -7.14264258E+01   -6.08429710E+01   -6.04789627E+01   
                   0.00000000E+00    2.00000000E+01    3.81080201E-07   -1.02638375E-04   -5.60257852E-05   -3.74271297E-04   -7.19884432E+01   -6.06547256E+01   -6.03464717E+01   
                   5.00000000E+00    2.00000000E+01   -2.84338135E-02    3.60999965E-02   -9.38360328E-05   -3.77775048E-04   -1.89683937E+01   -6.04100221E+01   -1.89680821E+01   
                   1.00000000E+01    2.00000000E+01   -5.71211246E-02    7.42410522E-02   -1.30014504E-04   -3.75178022E-04   -1.27824466E+01   -6.02374193E+01   -1.27823685E+01   
                   1.50000000E+01    2.00000000E+01   -8.61665507E-02    1.13763919E-01   -1.65515932E-04   -3.66542888E-04   -9.12544830E+00   -6.01262767E+01   -9.12541381E+00   
                   2.00000000E+01    2.00000000E+01   -1.15400367E-01    1.53959307E-01   -2.00919173E-04   -3.52487297E-04   -6.53025064E+00   -6.00499830E+01   -6.53023133E+00   
                   2.50000000E+01    2.00000000E+01   -1.44371725E-01    1.94084173E-01   -2.36168500E-04   -3.34044250E-04   -4.54225931E+00   -5.99781526E+01   -4.54224689E+00   
                   3.00000000E+01    2.00000000E+01   -1.72410954E-01    2.33468496E-01   -2.70440753E-04   -3.12456761E-04   -2.95987184E+00   -5.98906480E+01   -2.95986304E+00   
                   3.50000000E+01    2.00000000E+01   -1.98742794E-01    2.71583053E-01   -3.02162465E-04   -2.88954222E-04   -1.67408421E+00   -5.97893662E+01   -1.67407751E+00   
                   4.00000000E+01    2.00000000E+01   -2.22620896E-01    3.08054923E-01   -3.29171729E-04   -2.64559343E-04   -6.17285482E-01   -5.97020726E+01   -6.17280120E-01   
                   4.50000000E+01    2.00000000E+01   -2.43451198E-01    3.42633906E-01   -3.48992158E-04   -2.39963728E-04    2.56843128E-01   -5.96770038E+01    2.56847537E-01   
                   5.00000000E+01    2.00000000E+01   -2.60878122E-01    3.75126836E-01   -3.59167440E-04   -2.15490336E-04    9.82139288E-01   -5.97734782E+01    9.82142938E-01   
                   5.50000000E+01    2.00000000E+01   -2.74819857E-01    4.05323939E-01   -3.57598703E-04   -1.91138349E-04    1.58403694E+00   -6.00553976E+01    1.58403991E+00   
                   6.00000000E+01    2.00000000E+01   -2.85452741E-01    4.32940602E-01   -3.42833290E-04   -1.66687108E-04    2.08154605E+00   -6.05914667E+01    2.08154840E+00   
                   6.50000000E+01    2.00000000E+01   -2.93155747E-01    4.57590596E-01   -3.14269122E-04   -1.41825824E-04    2.48836908E+00   -6.14636234E+01    2.48837083E+00   